LAMMPS data file initial configuration linear dsDNA molecule; timestep = 0
2000 atoms
2496 bonds
1996 angles
998 dihedrals

6 atom types
4 bond types
4 angle types
2 dihedral types

-25 25 xlo xhi
-25 25 ylo yhi
-10 170.000000000 zlo zhi

Masses

1 1
2 1
3 1
4 1
5 1
6 1

Atoms

1 1 1 0.561231024 0.000000000 0.000000000
2 1 2 0.000000000 0.000000000 0.000000000
3 2 5 0.454045436 0.329883319 0.340000000
4 2 2 0.000000000 0.000000000 0.340000000
5 3 5 0.173429924 0.533762423 0.680000000
6 3 2 0.000000000 0.000000000 0.680000000
7 4 1 -0.173429924 0.533762423 1.020000000
8 4 2 -0.000000000 0.000000000 1.020000000
9 5 5 -0.454045436 0.329883319 1.360000000
10 5 2 -0.000000000 0.000000000 1.360000000
11 6 5 -0.561231024 -0.000000000 1.700000000
12 6 2 -0.000000000 -0.000000000 1.700000000
13 7 1 -0.454045436 -0.329883319 2.040000000
14 7 2 -0.000000000 -0.000000000 2.040000000
15 8 5 -0.173429924 -0.533762423 2.380000000
16 8 2 -0.000000000 -0.000000000 2.380000000
17 9 5 0.173429924 -0.533762423 2.720000000
18 9 2 0.000000000 -0.000000000 2.720000000
19 10 1 0.454045436 -0.329883319 3.060000000
20 10 2 0.000000000 -0.000000000 3.060000000
21 11 5 0.561231024 0.000000000 3.400000000
22 11 2 0.000000000 0.000000000 3.400000000
23 12 5 0.454045436 0.329883319 3.740000000
24 12 2 0.000000000 0.000000000 3.740000000
25 13 1 0.173429924 0.533762423 4.080000000
26 13 2 0.000000000 0.000000000 4.080000000
27 14 5 -0.173429924 0.533762423 4.420000000
28 14 2 -0.000000000 0.000000000 4.420000000
29 15 5 -0.454045436 0.329883319 4.760000000
30 15 2 -0.000000000 0.000000000 4.760000000
31 16 1 -0.561231024 0.000000000 5.100000000
32 16 2 -0.000000000 0.000000000 5.100000000
33 17 5 -0.454045436 -0.329883319 5.440000000
34 17 2 -0.000000000 -0.000000000 5.440000000
35 18 5 -0.173429924 -0.533762423 5.780000000
36 18 2 -0.000000000 -0.000000000 5.780000000
37 19 1 0.173429924 -0.533762423 6.120000000
38 19 2 0.000000000 -0.000000000 6.120000000
39 20 5 0.454045436 -0.329883319 6.460000000
40 20 2 0.000000000 -0.000000000 6.460000000
41 21 5 0.561231024 0.000000000 6.800000000
42 21 2 0.000000000 0.000000000 6.800000000
43 22 1 0.454045436 0.329883319 7.140000000
44 22 2 0.000000000 0.000000000 7.140000000
45 23 5 0.173429924 0.533762423 7.480000000
46 23 2 0.000000000 0.000000000 7.480000000
47 24 5 -0.173429924 0.533762423 7.820000000
48 24 2 -0.000000000 0.000000000 7.820000000
49 25 1 -0.454045436 0.329883319 8.160000000
50 25 2 -0.000000000 0.000000000 8.160000000
51 26 5 -0.561231024 0.000000000 8.500000000
52 26 2 -0.000000000 0.000000000 8.500000000
53 27 5 -0.454045436 -0.329883319 8.840000000
54 27 2 -0.000000000 -0.000000000 8.840000000
55 28 1 -0.173429924 -0.533762423 9.180000000
56 28 2 -0.000000000 -0.000000000 9.180000000
57 29 5 0.173429924 -0.533762423 9.520000000
58 29 2 0.000000000 -0.000000000 9.520000000
59 30 5 0.454045436 -0.329883319 9.860000000
60 30 2 0.000000000 -0.000000000 9.860000000
61 31 1 0.561231024 -0.000000000 10.200000000
62 31 2 0.000000000 -0.000000000 10.200000000
63 32 5 0.454045436 0.329883319 10.540000000
64 32 2 0.000000000 0.000000000 10.540000000
65 33 5 0.173429924 0.533762423 10.880000000
66 33 2 0.000000000 0.000000000 10.880000000
67 34 1 -0.173429924 0.533762423 11.220000000
68 34 2 -0.000000000 0.000000000 11.220000000
69 35 5 -0.454045436 0.329883319 11.560000000
70 35 2 -0.000000000 0.000000000 11.560000000
71 36 5 -0.561231024 -0.000000000 11.900000000
72 36 2 -0.000000000 -0.000000000 11.900000000
73 37 1 -0.454045436 -0.329883319 12.240000000
74 37 2 -0.000000000 -0.000000000 12.240000000
75 38 5 -0.173429924 -0.533762423 12.580000000
76 38 2 -0.000000000 -0.000000000 12.580000000
77 39 5 0.173429924 -0.533762423 12.920000000
78 39 2 0.000000000 -0.000000000 12.920000000
79 40 1 0.454045436 -0.329883319 13.260000000
80 40 2 0.000000000 -0.000000000 13.260000000
81 41 5 0.561231024 0.000000000 13.600000000
82 41 2 0.000000000 0.000000000 13.600000000
83 42 5 0.454045436 0.329883319 13.940000000
84 42 2 0.000000000 0.000000000 13.940000000
85 43 1 0.173429924 0.533762423 14.280000000
86 43 2 0.000000000 0.000000000 14.280000000
87 44 5 -0.173429924 0.533762423 14.620000000
88 44 2 -0.000000000 0.000000000 14.620000000
89 45 5 -0.454045436 0.329883319 14.960000000
90 45 2 -0.000000000 0.000000000 14.960000000
91 46 1 -0.561231024 0.000000000 15.300000000
92 46 2 -0.000000000 0.000000000 15.300000000
93 47 5 -0.454045436 -0.329883319 15.640000000
94 47 2 -0.000000000 -0.000000000 15.640000000
95 48 5 -0.173429924 -0.533762423 15.980000000
96 48 2 -0.000000000 -0.000000000 15.980000000
97 49 1 0.173429924 -0.533762423 16.320000000
98 49 2 0.000000000 -0.000000000 16.320000000
99 50 5 0.454045436 -0.329883319 16.660000000
100 50 2 0.000000000 -0.000000000 16.660000000
101 51 5 0.561231024 -0.000000000 17.000000000
102 51 2 0.000000000 -0.000000000 17.000000000
103 52 1 0.454045436 0.329883319 17.340000000
104 52 2 0.000000000 0.000000000 17.340000000
105 53 5 0.173429924 0.533762423 17.680000000
106 53 2 0.000000000 0.000000000 17.680000000
107 54 5 -0.173429924 0.533762423 18.020000000
108 54 2 -0.000000000 0.000000000 18.020000000
109 55 1 -0.454045436 0.329883319 18.360000000
110 55 2 -0.000000000 0.000000000 18.360000000
111 56 5 -0.561231024 0.000000000 18.700000000
112 56 2 -0.000000000 0.000000000 18.700000000
113 57 5 -0.454045436 -0.329883319 19.040000000
114 57 2 -0.000000000 -0.000000000 19.040000000
115 58 1 -0.173429924 -0.533762423 19.380000000
116 58 2 -0.000000000 -0.000000000 19.380000000
117 59 5 0.173429924 -0.533762423 19.720000000
118 59 2 0.000000000 -0.000000000 19.720000000
119 60 5 0.454045436 -0.329883319 20.060000000
120 60 2 0.000000000 -0.000000000 20.060000000
121 61 1 0.561231024 -0.000000000 20.400000000
122 61 2 0.000000000 -0.000000000 20.400000000
123 62 5 0.454045436 0.329883319 20.740000000
124 62 2 0.000000000 0.000000000 20.740000000
125 63 5 0.173429924 0.533762423 21.080000000
126 63 2 0.000000000 0.000000000 21.080000000
127 64 1 -0.173429924 0.533762423 21.420000000
128 64 2 -0.000000000 0.000000000 21.420000000
129 65 5 -0.454045436 0.329883319 21.760000000
130 65 2 -0.000000000 0.000000000 21.760000000
131 66 5 -0.561231024 -0.000000000 22.100000000
132 66 2 -0.000000000 -0.000000000 22.100000000
133 67 1 -0.454045436 -0.329883319 22.440000000
134 67 2 -0.000000000 -0.000000000 22.440000000
135 68 5 -0.173429924 -0.533762423 22.780000000
136 68 2 -0.000000000 -0.000000000 22.780000000
137 69 5 0.173429924 -0.533762423 23.120000000
138 69 2 0.000000000 -0.000000000 23.120000000
139 70 1 0.454045436 -0.329883319 23.460000000
140 70 2 0.000000000 -0.000000000 23.460000000
141 71 5 0.561231024 0.000000000 23.800000000
142 71 2 0.000000000 0.000000000 23.800000000
143 72 5 0.454045436 0.329883319 24.140000000
144 72 2 0.000000000 0.000000000 24.140000000
145 73 1 0.173429924 0.533762423 24.480000000
146 73 2 0.000000000 0.000000000 24.480000000
147 74 5 -0.173429924 0.533762423 24.820000000
148 74 2 -0.000000000 0.000000000 24.820000000
149 75 5 -0.454045436 0.329883319 25.160000000
150 75 2 -0.000000000 0.000000000 25.160000000
151 76 1 -0.561231024 0.000000000 25.500000000
152 76 2 -0.000000000 0.000000000 25.500000000
153 77 5 -0.454045436 -0.329883319 25.840000000
154 77 2 -0.000000000 -0.000000000 25.840000000
155 78 5 -0.173429924 -0.533762423 26.180000000
156 78 2 -0.000000000 -0.000000000 26.180000000
157 79 1 0.173429924 -0.533762423 26.520000000
158 79 2 0.000000000 -0.000000000 26.520000000
159 80 5 0.454045436 -0.329883319 26.860000000
160 80 2 0.000000000 -0.000000000 26.860000000
161 81 5 0.561231024 0.000000000 27.200000000
162 81 2 0.000000000 0.000000000 27.200000000
163 82 1 0.454045436 0.329883319 27.540000000
164 82 2 0.000000000 0.000000000 27.540000000
165 83 5 0.173429924 0.533762423 27.880000000
166 83 2 0.000000000 0.000000000 27.880000000
167 84 5 -0.173429924 0.533762423 28.220000000
168 84 2 -0.000000000 0.000000000 28.220000000
169 85 1 -0.454045436 0.329883319 28.560000000
170 85 2 -0.000000000 0.000000000 28.560000000
171 86 5 -0.561231024 -0.000000000 28.900000000
172 86 2 -0.000000000 -0.000000000 28.900000000
173 87 5 -0.454045436 -0.329883319 29.240000000
174 87 2 -0.000000000 -0.000000000 29.240000000
175 88 1 -0.173429924 -0.533762423 29.580000000
176 88 2 -0.000000000 -0.000000000 29.580000000
177 89 5 0.173429924 -0.533762423 29.920000000
178 89 2 0.000000000 -0.000000000 29.920000000
179 90 5 0.454045436 -0.329883319 30.260000000
180 90 2 0.000000000 -0.000000000 30.260000000
181 91 1 0.561231024 -0.000000000 30.600000000
182 91 2 0.000000000 -0.000000000 30.600000000
183 92 5 0.454045436 0.329883319 30.940000000
184 92 2 0.000000000 0.000000000 30.940000000
185 93 5 0.173429924 0.533762423 31.280000000
186 93 2 0.000000000 0.000000000 31.280000000
187 94 1 -0.173429924 0.533762423 31.620000000
188 94 2 -0.000000000 0.000000000 31.620000000
189 95 5 -0.454045436 0.329883319 31.960000000
190 95 2 -0.000000000 0.000000000 31.960000000
191 96 5 -0.561231024 0.000000000 32.300000000
192 96 2 -0.000000000 0.000000000 32.300000000
193 97 1 -0.454045436 -0.329883319 32.640000000
194 97 2 -0.000000000 -0.000000000 32.640000000
195 98 5 -0.173429924 -0.533762423 32.980000000
196 98 2 -0.000000000 -0.000000000 32.980000000
197 99 5 0.173429924 -0.533762423 33.320000000
198 99 2 0.000000000 -0.000000000 33.320000000
199 100 1 0.454045436 -0.329883319 33.660000000
200 100 2 0.000000000 -0.000000000 33.660000000
201 101 5 0.561231024 -0.000000000 34.000000000
202 101 2 0.000000000 -0.000000000 34.000000000
203 102 5 0.454045436 0.329883319 34.340000000
204 102 2 0.000000000 0.000000000 34.340000000
205 103 1 0.173429924 0.533762423 34.680000000
206 103 2 0.000000000 0.000000000 34.680000000
207 104 5 -0.173429924 0.533762423 35.020000000
208 104 2 -0.000000000 0.000000000 35.020000000
209 105 5 -0.454045436 0.329883319 35.360000000
210 105 2 -0.000000000 0.000000000 35.360000000
211 106 1 -0.561231024 0.000000000 35.700000000
212 106 2 -0.000000000 0.000000000 35.700000000
213 107 5 -0.454045436 -0.329883319 36.040000000
214 107 2 -0.000000000 -0.000000000 36.040000000
215 108 5 -0.173429924 -0.533762423 36.380000000
216 108 2 -0.000000000 -0.000000000 36.380000000
217 109 1 0.173429924 -0.533762423 36.720000000
218 109 2 0.000000000 -0.000000000 36.720000000
219 110 5 0.454045436 -0.329883319 37.060000000
220 110 2 0.000000000 -0.000000000 37.060000000
221 111 5 0.561231024 -0.000000000 37.400000000
222 111 2 0.000000000 -0.000000000 37.400000000
223 112 1 0.454045436 0.329883319 37.740000000
224 112 2 0.000000000 0.000000000 37.740000000
225 113 5 0.173429924 0.533762423 38.080000000
226 113 2 0.000000000 0.000000000 38.080000000
227 114 5 -0.173429924 0.533762423 38.420000000
228 114 2 -0.000000000 0.000000000 38.420000000
229 115 1 -0.454045436 0.329883319 38.760000000
230 115 2 -0.000000000 0.000000000 38.760000000
231 116 5 -0.561231024 0.000000000 39.100000000
232 116 2 -0.000000000 0.000000000 39.100000000
233 117 5 -0.454045436 -0.329883319 39.440000000
234 117 2 -0.000000000 -0.000000000 39.440000000
235 118 1 -0.173429924 -0.533762423 39.780000000
236 118 2 -0.000000000 -0.000000000 39.780000000
237 119 5 0.173429924 -0.533762423 40.120000000
238 119 2 0.000000000 -0.000000000 40.120000000
239 120 5 0.454045436 -0.329883319 40.460000000
240 120 2 0.000000000 -0.000000000 40.460000000
241 121 1 0.561231024 -0.000000000 40.800000000
242 121 2 0.000000000 -0.000000000 40.800000000
243 122 5 0.454045436 0.329883319 41.140000000
244 122 2 0.000000000 0.000000000 41.140000000
245 123 5 0.173429924 0.533762423 41.480000000
246 123 2 0.000000000 0.000000000 41.480000000
247 124 1 -0.173429924 0.533762423 41.820000000
248 124 2 -0.000000000 0.000000000 41.820000000
249 125 5 -0.454045436 0.329883319 42.160000000
250 125 2 -0.000000000 0.000000000 42.160000000
251 126 5 -0.561231024 -0.000000000 42.500000000
252 126 2 -0.000000000 -0.000000000 42.500000000
253 127 1 -0.454045436 -0.329883319 42.840000000
254 127 2 -0.000000000 -0.000000000 42.840000000
255 128 5 -0.173429924 -0.533762423 43.180000000
256 128 2 -0.000000000 -0.000000000 43.180000000
257 129 5 0.173429924 -0.533762423 43.520000000
258 129 2 0.000000000 -0.000000000 43.520000000
259 130 1 0.454045436 -0.329883319 43.860000000
260 130 2 0.000000000 -0.000000000 43.860000000
261 131 5 0.561231024 0.000000000 44.200000000
262 131 2 0.000000000 0.000000000 44.200000000
263 132 5 0.454045436 0.329883319 44.540000000
264 132 2 0.000000000 0.000000000 44.540000000
265 133 1 0.173429924 0.533762423 44.880000000
266 133 2 0.000000000 0.000000000 44.880000000
267 134 5 -0.173429924 0.533762423 45.220000000
268 134 2 -0.000000000 0.000000000 45.220000000
269 135 5 -0.454045436 0.329883319 45.560000000
270 135 2 -0.000000000 0.000000000 45.560000000
271 136 1 -0.561231024 -0.000000000 45.900000000
272 136 2 -0.000000000 -0.000000000 45.900000000
273 137 5 -0.454045436 -0.329883319 46.240000000
274 137 2 -0.000000000 -0.000000000 46.240000000
275 138 5 -0.173429924 -0.533762423 46.580000000
276 138 2 -0.000000000 -0.000000000 46.580000000
277 139 1 0.173429924 -0.533762423 46.920000000
278 139 2 0.000000000 -0.000000000 46.920000000
279 140 5 0.454045436 -0.329883319 47.260000000
280 140 2 0.000000000 -0.000000000 47.260000000
281 141 5 0.561231024 0.000000000 47.600000000
282 141 2 0.000000000 0.000000000 47.600000000
283 142 1 0.454045436 0.329883319 47.940000000
284 142 2 0.000000000 0.000000000 47.940000000
285 143 5 0.173429924 0.533762423 48.280000000
286 143 2 0.000000000 0.000000000 48.280000000
287 144 5 -0.173429924 0.533762423 48.620000000
288 144 2 -0.000000000 0.000000000 48.620000000
289 145 1 -0.454045436 0.329883319 48.960000000
290 145 2 -0.000000000 0.000000000 48.960000000
291 146 5 -0.561231024 0.000000000 49.300000000
292 146 2 -0.000000000 0.000000000 49.300000000
293 147 5 -0.454045436 -0.329883319 49.640000000
294 147 2 -0.000000000 -0.000000000 49.640000000
295 148 1 -0.173429924 -0.533762423 49.980000000
296 148 2 -0.000000000 -0.000000000 49.980000000
297 149 5 0.173429924 -0.533762423 50.320000000
298 149 2 0.000000000 -0.000000000 50.320000000
299 150 5 0.454045436 -0.329883319 50.660000000
300 150 2 0.000000000 -0.000000000 50.660000000
301 151 1 0.561231024 -0.000000000 51.000000000
302 151 2 0.000000000 -0.000000000 51.000000000
303 152 5 0.454045436 0.329883319 51.340000000
304 152 2 0.000000000 0.000000000 51.340000000
305 153 5 0.173429924 0.533762423 51.680000000
306 153 2 0.000000000 0.000000000 51.680000000
307 154 1 -0.173429924 0.533762423 52.020000000
308 154 2 -0.000000000 0.000000000 52.020000000
309 155 5 -0.454045436 0.329883319 52.360000000
310 155 2 -0.000000000 0.000000000 52.360000000
311 156 5 -0.561231024 -0.000000000 52.700000000
312 156 2 -0.000000000 -0.000000000 52.700000000
313 157 1 -0.454045436 -0.329883319 53.040000000
314 157 2 -0.000000000 -0.000000000 53.040000000
315 158 5 -0.173429924 -0.533762423 53.380000000
316 158 2 -0.000000000 -0.000000000 53.380000000
317 159 5 0.173429924 -0.533762423 53.720000000
318 159 2 0.000000000 -0.000000000 53.720000000
319 160 1 0.454045436 -0.329883319 54.060000000
320 160 2 0.000000000 -0.000000000 54.060000000
321 161 5 0.561231024 0.000000000 54.400000000
322 161 2 0.000000000 0.000000000 54.400000000
323 162 5 0.454045436 0.329883319 54.740000000
324 162 2 0.000000000 0.000000000 54.740000000
325 163 1 0.173429924 0.533762423 55.080000000
326 163 2 0.000000000 0.000000000 55.080000000
327 164 5 -0.173429924 0.533762423 55.420000000
328 164 2 -0.000000000 0.000000000 55.420000000
329 165 5 -0.454045436 0.329883319 55.760000000
330 165 2 -0.000000000 0.000000000 55.760000000
331 166 1 -0.561231024 -0.000000000 56.100000000
332 166 2 -0.000000000 -0.000000000 56.100000000
333 167 5 -0.454045436 -0.329883319 56.440000000
334 167 2 -0.000000000 -0.000000000 56.440000000
335 168 5 -0.173429924 -0.533762423 56.780000000
336 168 2 -0.000000000 -0.000000000 56.780000000
337 169 1 0.173429924 -0.533762423 57.120000000
338 169 2 0.000000000 -0.000000000 57.120000000
339 170 5 0.454045436 -0.329883319 57.460000000
340 170 2 0.000000000 -0.000000000 57.460000000
341 171 5 0.561231024 0.000000000 57.800000000
342 171 2 0.000000000 0.000000000 57.800000000
343 172 1 0.454045436 0.329883319 58.140000000
344 172 2 0.000000000 0.000000000 58.140000000
345 173 5 0.173429924 0.533762423 58.480000000
346 173 2 0.000000000 0.000000000 58.480000000
347 174 5 -0.173429924 0.533762423 58.820000000
348 174 2 -0.000000000 0.000000000 58.820000000
349 175 1 -0.454045436 0.329883319 59.160000000
350 175 2 -0.000000000 0.000000000 59.160000000
351 176 5 -0.561231024 0.000000000 59.500000000
352 176 2 -0.000000000 0.000000000 59.500000000
353 177 5 -0.454045436 -0.329883319 59.840000000
354 177 2 -0.000000000 -0.000000000 59.840000000
355 178 1 -0.173429924 -0.533762423 60.180000000
356 178 2 -0.000000000 -0.000000000 60.180000000
357 179 5 0.173429924 -0.533762423 60.520000000
358 179 2 0.000000000 -0.000000000 60.520000000
359 180 5 0.454045436 -0.329883319 60.860000000
360 180 2 0.000000000 -0.000000000 60.860000000
361 181 1 0.561231024 -0.000000000 61.200000000
362 181 2 0.000000000 -0.000000000 61.200000000
363 182 5 0.454045436 0.329883319 61.540000000
364 182 2 0.000000000 0.000000000 61.540000000
365 183 5 0.173429924 0.533762423 61.880000000
366 183 2 0.000000000 0.000000000 61.880000000
367 184 1 -0.173429924 0.533762423 62.220000000
368 184 2 -0.000000000 0.000000000 62.220000000
369 185 5 -0.454045436 0.329883319 62.560000000
370 185 2 -0.000000000 0.000000000 62.560000000
371 186 5 -0.561231024 0.000000000 62.900000000
372 186 2 -0.000000000 0.000000000 62.900000000
373 187 1 -0.454045436 -0.329883319 63.240000000
374 187 2 -0.000000000 -0.000000000 63.240000000
375 188 5 -0.173429924 -0.533762423 63.580000000
376 188 2 -0.000000000 -0.000000000 63.580000000
377 189 5 0.173429924 -0.533762423 63.920000000
378 189 2 0.000000000 -0.000000000 63.920000000
379 190 1 0.454045436 -0.329883319 64.260000000
380 190 2 0.000000000 -0.000000000 64.260000000
381 191 5 0.561231024 -0.000000000 64.600000000
382 191 2 0.000000000 -0.000000000 64.600000000
383 192 5 0.454045436 0.329883319 64.940000000
384 192 2 0.000000000 0.000000000 64.940000000
385 193 1 0.173429924 0.533762423 65.280000000
386 193 2 0.000000000 0.000000000 65.280000000
387 194 5 -0.173429924 0.533762423 65.620000000
388 194 2 -0.000000000 0.000000000 65.620000000
389 195 5 -0.454045436 0.329883319 65.960000000
390 195 2 -0.000000000 0.000000000 65.960000000
391 196 1 -0.561231024 0.000000000 66.300000000
392 196 2 -0.000000000 0.000000000 66.300000000
393 197 5 -0.454045436 -0.329883319 66.640000000
394 197 2 -0.000000000 -0.000000000 66.640000000
395 198 5 -0.173429924 -0.533762423 66.980000000
396 198 2 -0.000000000 -0.000000000 66.980000000
397 199 1 0.173429924 -0.533762423 67.320000000
398 199 2 0.000000000 -0.000000000 67.320000000
399 200 5 0.454045436 -0.329883319 67.660000000
400 200 2 0.000000000 -0.000000000 67.660000000
401 201 5 0.561231024 -0.000000000 68.000000000
402 201 2 0.000000000 -0.000000000 68.000000000
403 202 1 0.454045436 0.329883319 68.340000000
404 202 2 0.000000000 0.000000000 68.340000000
405 203 5 0.173429924 0.533762423 68.680000000
406 203 2 0.000000000 0.000000000 68.680000000
407 204 5 -0.173429924 0.533762423 69.020000000
408 204 2 -0.000000000 0.000000000 69.020000000
409 205 1 -0.454045436 0.329883319 69.360000000
410 205 2 -0.000000000 0.000000000 69.360000000
411 206 5 -0.561231024 0.000000000 69.700000000
412 206 2 -0.000000000 0.000000000 69.700000000
413 207 5 -0.454045436 -0.329883319 70.040000000
414 207 2 -0.000000000 -0.000000000 70.040000000
415 208 1 -0.173429924 -0.533762423 70.380000000
416 208 2 -0.000000000 -0.000000000 70.380000000
417 209 5 0.173429924 -0.533762423 70.720000000
418 209 2 0.000000000 -0.000000000 70.720000000
419 210 5 0.454045436 -0.329883319 71.060000000
420 210 2 0.000000000 -0.000000000 71.060000000
421 211 1 0.561231024 -0.000000000 71.400000000
422 211 2 0.000000000 -0.000000000 71.400000000
423 212 5 0.454045436 0.329883319 71.740000000
424 212 2 0.000000000 0.000000000 71.740000000
425 213 5 0.173429924 0.533762423 72.080000000
426 213 2 0.000000000 0.000000000 72.080000000
427 214 1 -0.173429924 0.533762423 72.420000000
428 214 2 -0.000000000 0.000000000 72.420000000
429 215 5 -0.454045436 0.329883319 72.760000000
430 215 2 -0.000000000 0.000000000 72.760000000
431 216 5 -0.561231024 0.000000000 73.100000000
432 216 2 -0.000000000 0.000000000 73.100000000
433 217 1 -0.454045436 -0.329883319 73.440000000
434 217 2 -0.000000000 -0.000000000 73.440000000
435 218 5 -0.173429924 -0.533762423 73.780000000
436 218 2 -0.000000000 -0.000000000 73.780000000
437 219 5 0.173429924 -0.533762423 74.120000000
438 219 2 0.000000000 -0.000000000 74.120000000
439 220 1 0.454045436 -0.329883319 74.460000000
440 220 2 0.000000000 -0.000000000 74.460000000
441 221 5 0.561231024 -0.000000000 74.800000000
442 221 2 0.000000000 -0.000000000 74.800000000
443 222 5 0.454045436 0.329883319 75.140000000
444 222 2 0.000000000 0.000000000 75.140000000
445 223 1 0.173429924 0.533762423 75.480000000
446 223 2 0.000000000 0.000000000 75.480000000
447 224 5 -0.173429924 0.533762423 75.820000000
448 224 2 -0.000000000 0.000000000 75.820000000
449 225 5 -0.454045436 0.329883319 76.160000000
450 225 2 -0.000000000 0.000000000 76.160000000
451 226 1 -0.561231024 0.000000000 76.500000000
452 226 2 -0.000000000 0.000000000 76.500000000
453 227 5 -0.454045436 -0.329883319 76.840000000
454 227 2 -0.000000000 -0.000000000 76.840000000
455 228 5 -0.173429924 -0.533762423 77.180000000
456 228 2 -0.000000000 -0.000000000 77.180000000
457 229 1 0.173429924 -0.533762423 77.520000000
458 229 2 0.000000000 -0.000000000 77.520000000
459 230 5 0.454045436 -0.329883319 77.860000000
460 230 2 0.000000000 -0.000000000 77.860000000
461 231 5 0.561231024 -0.000000000 78.200000000
462 231 2 0.000000000 -0.000000000 78.200000000
463 232 1 0.454045436 0.329883319 78.540000000
464 232 2 0.000000000 0.000000000 78.540000000
465 233 5 0.173429924 0.533762423 78.880000000
466 233 2 0.000000000 0.000000000 78.880000000
467 234 5 -0.173429924 0.533762423 79.220000000
468 234 2 -0.000000000 0.000000000 79.220000000
469 235 1 -0.454045436 0.329883319 79.560000000
470 235 2 -0.000000000 0.000000000 79.560000000
471 236 5 -0.561231024 0.000000000 79.900000000
472 236 2 -0.000000000 0.000000000 79.900000000
473 237 5 -0.454045436 -0.329883319 80.240000000
474 237 2 -0.000000000 -0.000000000 80.240000000
475 238 1 -0.173429924 -0.533762423 80.580000000
476 238 2 -0.000000000 -0.000000000 80.580000000
477 239 5 0.173429924 -0.533762423 80.920000000
478 239 2 0.000000000 -0.000000000 80.920000000
479 240 5 0.454045436 -0.329883319 81.260000000
480 240 2 0.000000000 -0.000000000 81.260000000
481 241 1 0.561231024 -0.000000000 81.600000000
482 241 2 0.000000000 -0.000000000 81.600000000
483 242 5 0.454045436 0.329883319 81.940000000
484 242 2 0.000000000 0.000000000 81.940000000
485 243 5 0.173429924 0.533762423 82.280000000
486 243 2 0.000000000 0.000000000 82.280000000
487 244 1 -0.173429924 0.533762423 82.620000000
488 244 2 -0.000000000 0.000000000 82.620000000
489 245 5 -0.454045436 0.329883319 82.960000000
490 245 2 -0.000000000 0.000000000 82.960000000
491 246 5 -0.561231024 0.000000000 83.300000000
492 246 2 -0.000000000 0.000000000 83.300000000
493 247 1 -0.454045436 -0.329883319 83.640000000
494 247 2 -0.000000000 -0.000000000 83.640000000
495 248 5 -0.173429924 -0.533762423 83.980000000
496 248 2 -0.000000000 -0.000000000 83.980000000
497 249 5 0.173429924 -0.533762423 84.320000000
498 249 2 0.000000000 -0.000000000 84.320000000
499 250 1 0.454045436 -0.329883319 84.660000000
500 250 2 0.000000000 -0.000000000 84.660000000
501 251 5 0.561231024 0.000000000 85.000000000
502 251 2 0.000000000 0.000000000 85.000000000
503 252 5 0.454045436 0.329883319 85.340000000
504 252 2 0.000000000 0.000000000 85.340000000
505 253 1 0.173429924 0.533762423 85.680000000
506 253 2 0.000000000 0.000000000 85.680000000
507 254 5 -0.173429924 0.533762423 86.020000000
508 254 2 -0.000000000 0.000000000 86.020000000
509 255 5 -0.454045436 0.329883319 86.360000000
510 255 2 -0.000000000 0.000000000 86.360000000
511 256 1 -0.561231024 0.000000000 86.700000000
512 256 2 -0.000000000 0.000000000 86.700000000
513 257 5 -0.454045436 -0.329883319 87.040000000
514 257 2 -0.000000000 -0.000000000 87.040000000
515 258 5 -0.173429924 -0.533762423 87.380000000
516 258 2 -0.000000000 -0.000000000 87.380000000
517 259 1 0.173429924 -0.533762423 87.720000000
518 259 2 0.000000000 -0.000000000 87.720000000
519 260 5 0.454045436 -0.329883319 88.060000000
520 260 2 0.000000000 -0.000000000 88.060000000
521 261 5 0.561231024 0.000000000 88.400000000
522 261 2 0.000000000 0.000000000 88.400000000
523 262 1 0.454045436 0.329883319 88.740000000
524 262 2 0.000000000 0.000000000 88.740000000
525 263 5 0.173429924 0.533762423 89.080000000
526 263 2 0.000000000 0.000000000 89.080000000
527 264 5 -0.173429924 0.533762423 89.420000000
528 264 2 -0.000000000 0.000000000 89.420000000
529 265 1 -0.454045436 0.329883319 89.760000000
530 265 2 -0.000000000 0.000000000 89.760000000
531 266 5 -0.561231024 0.000000000 90.100000000
532 266 2 -0.000000000 0.000000000 90.100000000
533 267 5 -0.454045436 -0.329883319 90.440000000
534 267 2 -0.000000000 -0.000000000 90.440000000
535 268 1 -0.173429924 -0.533762423 90.780000000
536 268 2 -0.000000000 -0.000000000 90.780000000
537 269 5 0.173429924 -0.533762423 91.120000000
538 269 2 0.000000000 -0.000000000 91.120000000
539 270 5 0.454045436 -0.329883319 91.460000000
540 270 2 0.000000000 -0.000000000 91.460000000
541 271 1 0.561231024 0.000000000 91.800000000
542 271 2 0.000000000 0.000000000 91.800000000
543 272 5 0.454045436 0.329883319 92.140000000
544 272 2 0.000000000 0.000000000 92.140000000
545 273 5 0.173429924 0.533762423 92.480000000
546 273 2 0.000000000 0.000000000 92.480000000
547 274 1 -0.173429924 0.533762423 92.820000000
548 274 2 -0.000000000 0.000000000 92.820000000
549 275 5 -0.454045436 0.329883319 93.160000000
550 275 2 -0.000000000 0.000000000 93.160000000
551 276 5 -0.561231024 -0.000000000 93.500000000
552 276 2 -0.000000000 -0.000000000 93.500000000
553 277 1 -0.454045436 -0.329883319 93.840000000
554 277 2 -0.000000000 -0.000000000 93.840000000
555 278 5 -0.173429924 -0.533762423 94.180000000
556 278 2 -0.000000000 -0.000000000 94.180000000
557 279 5 0.173429924 -0.533762423 94.520000000
558 279 2 0.000000000 -0.000000000 94.520000000
559 280 1 0.454045436 -0.329883319 94.860000000
560 280 2 0.000000000 -0.000000000 94.860000000
561 281 5 0.561231024 0.000000000 95.200000000
562 281 2 0.000000000 0.000000000 95.200000000
563 282 5 0.454045436 0.329883319 95.540000000
564 282 2 0.000000000 0.000000000 95.540000000
565 283 1 0.173429924 0.533762423 95.880000000
566 283 2 0.000000000 0.000000000 95.880000000
567 284 5 -0.173429924 0.533762423 96.220000000
568 284 2 -0.000000000 0.000000000 96.220000000
569 285 5 -0.454045436 0.329883319 96.560000000
570 285 2 -0.000000000 0.000000000 96.560000000
571 286 1 -0.561231024 0.000000000 96.900000000
572 286 2 -0.000000000 0.000000000 96.900000000
573 287 5 -0.454045436 -0.329883319 97.240000000
574 287 2 -0.000000000 -0.000000000 97.240000000
575 288 5 -0.173429924 -0.533762423 97.580000000
576 288 2 -0.000000000 -0.000000000 97.580000000
577 289 1 0.173429924 -0.533762423 97.920000000
578 289 2 0.000000000 -0.000000000 97.920000000
579 290 5 0.454045436 -0.329883319 98.260000000
580 290 2 0.000000000 -0.000000000 98.260000000
581 291 5 0.561231024 -0.000000000 98.600000000
582 291 2 0.000000000 -0.000000000 98.600000000
583 292 1 0.454045436 0.329883319 98.940000000
584 292 2 0.000000000 0.000000000 98.940000000
585 293 5 0.173429924 0.533762423 99.280000000
586 293 2 0.000000000 0.000000000 99.280000000
587 294 5 -0.173429924 0.533762423 99.620000000
588 294 2 -0.000000000 0.000000000 99.620000000
589 295 1 -0.454045436 0.329883319 99.960000000
590 295 2 -0.000000000 0.000000000 99.960000000
591 296 5 -0.561231024 0.000000000 100.300000000
592 296 2 -0.000000000 0.000000000 100.300000000
593 297 5 -0.454045436 -0.329883319 100.640000000
594 297 2 -0.000000000 -0.000000000 100.640000000
595 298 1 -0.173429924 -0.533762423 100.980000000
596 298 2 -0.000000000 -0.000000000 100.980000000
597 299 5 0.173429924 -0.533762423 101.320000000
598 299 2 0.000000000 -0.000000000 101.320000000
599 300 5 0.454045436 -0.329883319 101.660000000
600 300 2 0.000000000 -0.000000000 101.660000000
601 301 1 0.561231024 -0.000000000 102.000000000
602 301 2 0.000000000 -0.000000000 102.000000000
603 302 5 0.454045436 0.329883319 102.340000000
604 302 2 0.000000000 0.000000000 102.340000000
605 303 5 0.173429924 0.533762423 102.680000000
606 303 2 0.000000000 0.000000000 102.680000000
607 304 1 -0.173429924 0.533762423 103.020000000
608 304 2 -0.000000000 0.000000000 103.020000000
609 305 5 -0.454045436 0.329883319 103.360000000
610 305 2 -0.000000000 0.000000000 103.360000000
611 306 5 -0.561231024 0.000000000 103.700000000
612 306 2 -0.000000000 0.000000000 103.700000000
613 307 1 -0.454045436 -0.329883319 104.040000000
614 307 2 -0.000000000 -0.000000000 104.040000000
615 308 5 -0.173429924 -0.533762423 104.380000000
616 308 2 -0.000000000 -0.000000000 104.380000000
617 309 5 0.173429924 -0.533762423 104.720000000
618 309 2 0.000000000 -0.000000000 104.720000000
619 310 1 0.454045436 -0.329883319 105.060000000
620 310 2 0.000000000 -0.000000000 105.060000000
621 311 5 0.561231024 0.000000000 105.400000000
622 311 2 0.000000000 0.000000000 105.400000000
623 312 5 0.454045436 0.329883319 105.740000000
624 312 2 0.000000000 0.000000000 105.740000000
625 313 1 0.173429924 0.533762423 106.080000000
626 313 2 0.000000000 0.000000000 106.080000000