LAMMPS data file initial configuration ring dsDNA molecule with phosphates; timestep = 0
6000 atoms
5000 bonds
6000 angles
2000 dihedrals

8 atom types
3 bond types
3 angle types
1 dihedral types

-74.112680651 74.112680651 xlo xhi
-74.112680651 74.112680651 ylo yhi
-74.112680651 74.112680651 zlo zhi

Masses

1 1
2 1
3 1
4 1
5 1
6 1
7 1
8 1

Atoms

1 1 1 54.712680651 0.000000000 -0.000000000
2 1 2 54.212680651 0.000000000 -0.000000000
3 1 7 55.039457347 0.000000000 0.426776696
4 2 5 54.597013128 0.343047665 -0.352671151
5 2 2 54.192512616 0.340506080 -0.058778525
6 2 7 55.112223906 0.346284872 -0.199476074
7 3 5 54.293803699 0.682311975 -0.570633910
8 3 2 54.139307401 0.680370415 -0.095105652
9 3 7 54.800631989 0.688681303 -0.749535764
10 4 1 53.917690403 1.016444906 -0.570633910
11 4 2 54.072171453 1.019357150 -0.095105652
12 4 7 54.222545442 1.022191969 -1.013298268
13 5 5 53.610334388 1.347658425 -0.352671151
14 5 2 54.014715137 1.357823762 -0.058778525
15 5 7 53.596823804 1.347318795 -0.890015274
16 6 5 53.486275374 1.680873920 -0.000000000
17 6 2 53.986028654 1.696579299 -0.000000000
18 6 7 53.159659922 1.670609615 -0.426776696
19 7 1 53.589166812 2.021221620 0.352671151
20 7 2 53.993387895 2.036467619 0.058778525
21 7 7 53.074311942 2.001802848 0.199476074
22 8 5 53.875119261 2.371080608 0.570633910
23 8 2 54.029478339 2.377874056 0.095105652
24 8 7 53.368741126 2.348794562 0.749535764
25 9 5 54.229510003 2.728170553 0.570633910
26 9 2 54.075196657 2.720407379 0.095105652
27 9 7 53.924985911 2.712850598 1.013298268
28 10 1 54.510818536 3.085804080 0.352671151
29 10 2 54.106956625 3.062941853 0.058778525
30 10 7 54.524311785 3.086567920 0.890015274
31 11 5 54.604717674 3.435437643 0.000000000
32 11 2 54.105704310 3.404042383 0.000000000
33 11 7 54.930849551 3.455956121 0.426776696
34 12 5 54.467738253 3.770545558 -0.352671151
35 12 2 54.064195518 3.742610191 -0.058778525
36 12 7 54.981729115 3.806126730 -0.199476074
37 13 1 54.143824556 4.090101730 -0.570633910
38 13 2 53.989755033 4.078463098 -0.095105652
39 13 7 54.649252803 4.128282500 -0.749535764
40 14 5 53.747473054 4.399958977 -0.570633910
41 14 2 53.901466409 4.412565419 -0.095105652
42 14 7 54.051365670 4.424836705 -1.013298268
43 15 5 53.419926466 4.711219877 -0.352671151
44 15 2 53.822870976 4.746756433 -0.058778525
45 15 7 53.406463868 4.710032581 -0.890015274
46 16 1 53.275189480 5.035988117 -0.000000000
47 16 2 53.772970463 5.083042274 -0.000000000
48 16 7 52.949863031 5.005235714 -0.426776696
49 17 5 53.356507277 5.382124826 0.352671151
50 17 2 53.758973417 5.422721992 0.058778525
51 17 7 52.843887670 5.330416368 0.199476074
52 18 5 53.619927637 5.749248550 0.570633910
53 18 2 53.773555558 5.765720879 0.095105652
54 18 7 53.115948076 5.695210734 0.749535764
55 19 1 53.951197206 6.127886239 0.570633910
56 19 2 53.797675816 6.110448968 0.095105652
57 19 7 53.648235971 6.093475288 1.013298268
58 20 5 54.209494646 6.502477567 0.352671151
59 20 2 53.807865195 6.454301753 0.058778525
60 20 7 54.222913307 6.504087147 0.890015274
61 21 5 54.281254822 6.857317183 0.000000000
62 21 2 53.785197472 6.794650566 0.000000000
63 21 7 54.605454786 6.898273163 0.426776696
64 22 1 54.123504099 7.183162830 -0.352671151
65 22 2 53.722511739 7.129943929 -0.058778525
66 22 7 54.634246557 7.250947544 -0.199476074
67 23 5 53.780164474 7.481749722 -0.570633910
68 23 2 53.627129767 7.460459951 -0.095105652
69 23 7 54.282197983 7.551591253 -0.749535764
70 24 5 53.365138983 7.766108419 -0.570633910
71 24 2 53.518036902 7.788359309 -0.095105652
72 24 7 53.666869851 7.810018632 -1.013298268
73 25 1 53.018694500 8.056188297 -0.352671151
74 25 2 53.418612532 8.116955824 -0.058778525
75 25 7 53.005333018 8.054158020 -0.890015274
76 26 5 52.853850753 8.371227571 -0.000000000
77 26 2 53.347694924 8.449444803 -0.000000000
78 26 7 52.531097221 8.320108433 -0.426776696
79 27 5 52.913273984 8.721787244 0.352671151
80 27 2 53.312396832 8.787575359 0.058778525
81 27 7 52.404912716 8.637993169 0.199476074
82 28 1 53.153122655 9.104726835 0.570633910
83 28 2 53.305413120 9.130813037 0.095105652
84 28 7 52.653530644 9.019150512 0.749535764
85 29 5 53.459963682 9.503417957 0.570633910
86 29 2 53.307840126 9.476375407 0.095105652
87 29 7 53.159760953 9.450051815 1.013298268
88 30 5 53.694230646 9.893488745 0.352671151
89 30 2 53.296418704 9.820189474 0.058778525
90 30 7 53.707521763 9.895937714 0.890015274
91 31 1 53.743568657 10.252134025 0.000000000
92 31 2 53.252425032 10.158443368 0.000000000
93 31 7 54.064557239 10.313365872 0.426776696
94 32 5 53.565669201 10.567431440 -0.352671151
95 32 2 53.168809751 10.489139036 -0.058778525
96 32 7 54.071147588 10.667152181 -0.199476074
97 33 5 53.204258652 10.843870665 -0.570633910
98 33 2 53.052862720 10.813013776 -0.095105652
99 33 7 53.700916127 10.945097326 -0.749535764
100 34 1 52.772197089 11.101608580 -0.570633910
101 34 2 52.923396154 11.133416102 -0.095105652
102 34 7 53.070575415 11.164377984 -1.013298268
103 35 5 52.408221969 11.369362622 -0.352671151
104 35 2 52.803535229 11.455121300 -0.058778525
105 35 7 52.395014335 11.366497377 -0.890015274
106 36 5 52.223922024 11.673429613 -0.000000000
107 36 2 52.711880405 11.782501234 -0.000000000
108 36 7 51.905015169 11.602145485 -0.426776696
109 37 1 52.261216172 12.027028752 0.352671151
110 37 2 52.655420573 12.117748181 0.058778525
111 37 7 51.759119513 11.911479758 0.199476074
112 38 5 52.476546581 12.424272922 0.570633910
113 38 2 52.626898569 12.459870046 0.095105652
114 38 7 51.983313783 12.307495823 0.749535764
115 39 5 52.757748104 12.841444026 0.570633910
116 39 2 52.607622746 12.804902921 0.095105652
117 39 7 52.461488645 12.769333305 1.013298268
118 40 1 52.967060049 13.245454843 0.352671151
119 40 2 52.574635597 13.147321392 0.058778525
120 40 7 52.980171167 13.248733535 0.890015274
121 41 5 52.993781179 13.606490378 0.000000000
122 41 2 52.509489598 13.482145434 0.000000000
123 41 7 53.310291584 13.687756437 0.426776696
124 42 5 52.796435079 13.909995226 -0.352671151
125 42 2 52.405274760 13.806938303 -0.058778525
126 42 7 53.294654502 14.041258441 -0.199476074
127 43 1 52.418379928 14.163195805 -0.570633910
128 43 2 52.269220262 14.122893576 -0.095105652
129 43 7 52.907701288 14.295408099 -0.749535764
130 44 5 51.970987443 14.393295763 -0.570633910
131 44 2 52.119890940 14.434534388 -0.095105652
132 44 7 52.264835664 14.474676636 -1.013298268
133 45 5 51.590918129 14.637667267 -0.352671151
134 45 2 51.980066497 14.748078644 -0.058778525
135 45 7 51.577916467 14.633978362 -0.890015274
136 46 1 51.387889333 14.929561962 -0.000000000
137 46 2 51.868036176 15.069057515 -0.000000000
138 46 7 51.074087735 14.838394170 -0.426776696
139 47 5 51.402907216 15.284805073 0.352671151
140 47 2 51.790637425 15.400097787 0.058778525
141 47 7 50.909056711 15.137957179 0.199476074
142 48 5 51.592869552 15.694786081 0.570633910
143 48 2 51.740689693 15.739753641 0.095105652
144 48 7 51.107942531 15.547269071 0.749535764
145 49 1 51.847321798 16.128790782 0.570633910
146 49 2 51.699787112 16.082895334 0.095105652
147 49 7 51.556174809 16.038220069 1.013298268
148 50 5 52.030852664 16.545147182 0.352671151
149 50 2 51.645364423 16.422566840 0.058778525
150 50 7 52.043732039 16.549242658 0.890015274
151 51 5 52.034851457 16.907148129 0.000000000
152 51 2 51.559323199 16.752639632 0.000000000
153 51 7 52.345634563 17.008127681 0.426776696
154 52 1 51.818837548 17.197662616 -0.352671151
155 52 2 51.434920092 17.070247892 -0.058778525
156 52 7 52.307831763 17.359950269 -0.199476074
157 53 5 51.425629806 17.426625282 -0.570633910
158 53 2 51.279295071 17.377036768 -0.095105652
159 53 7 51.905683924 17.589301427 -0.749535764
160 54 5 50.964672052 17.628179184 -0.570633910
161 54 2 51.110692327 17.678686162 -0.095105652
162 54 7 51.252830483 17.727850353 -1.013298268
163 55 1 50.570008504 17.848203727 -0.352671151
164 55 2 50.951456189 17.982832061 -0.058778525
165 55 7 50.557264127 17.843705720 -0.890015274
166 56 5 50.349052120 18.126774151 -0.000000000
167 56 2 50.819492504 18.296143111 -0.000000000
168 56 7 50.041594211 18.016082492 -0.426776696
169 57 5 50.341734469 18.482259251 0.352671151
170 57 2 50.721460291 18.621670242 0.058778525
171 57 7 49.858079121 18.304691998 0.199476074
172 58 1 50.505579037 18.903359089 0.570633910
173 58 2 50.650283952 18.957519620 0.095105652
174 58 7 50.030871579 18.725684350 0.749535764
175 59 5 50.732277799 19.352484570 0.570633910
176 59 2 50.587916039 19.297415906 0.095105652
177 59 7 50.447392304 19.243811307 1.013298268
178 60 5 50.889303275 19.779543383 0.352671151
179 60 2 50.512272590 19.632999919 0.058778525
180 60 7 50.901900078 19.784439481 0.890015274
181 61 1 50.870563949 20.141081091 0.000000000
182 61 2 50.405675706 19.957018815 0.000000000
183 61 7 51.174393237 20.261375616 0.426776696
184 62 5 50.636734738 20.417458688 -0.352671151
185 62 2 50.261575293 20.266189012 -0.058778525
186 62 7 51.114573909 20.610130305 -0.199476074
187 63 5 50.229926218 20.621279831 -0.570633910
188 63 2 50.086993929 20.562600733 -0.095105652
189 63 7 50.698818539 20.813777819 -0.749535764
190 64 1 49.757222384 20.793492235 -0.570633910
191 64 2 49.899783163 20.853068238 -0.095105652
192 64 7 50.038553796 20.911060343 -1.013298268
193 65 5 49.349522160 20.988301480 -0.352671151
194 65 2 49.721763761 21.146615454 -0.058778525
195 65 7 49.337085362 20.983012123 -0.890015274
196 66 5 49.111510200 21.252448243 0.000000000
197 66 2 49.570387513 21.451022188 0.000000000
198 66 7 48.811609376 21.122669567 -0.426776696
199 67 1 49.081885895 21.606772396 0.352671151
200 67 2 49.452108727 21.769751473 0.058778525
201 67 7 48.610334471 21.399186560 0.199476074
202 68 5 49.218966076 22.037329174 0.570633910
203 68 2 49.359984681 22.100468929 0.095105652
204 68 7 48.756351633 21.830197908 0.749535764
205 69 5 49.417016677 22.499802942 0.570633910
206 69 2 49.276397572 22.435778394 0.095105652
207 69 7 49.139516989 22.373456013 1.013298268
208 70 1 49.546917054 22.935878764 0.352671151
209 70 2 49.179831893 22.765950517 0.058778525
210 70 7 49.559181572 22.941556160 0.890015274
211 71 5 49.505513566 23.295526407 0.000000000
212 71 2 49.053100040 23.082636762 0.000000000
213 71 7 49.801189961 23.434661157 0.426776696
214 72 5 49.254791871 23.556676379 -0.352671151
215 72 2 48.889871018 23.382148742 -0.058778525
216 72 7 49.719590184 23.778971572 -0.199476074
217 73 1 48.835988059 23.734551609 -0.570633910
218 73 2 48.697022305 23.667013508 -0.095105652
219 73 7 49.291868079 23.956111739 -0.749535764
220 74 5 48.353403691 23.876742871 -0.570633910
221 74 2 48.491942351 23.945152780 -0.095105652
222 74 7 48.626797797 24.011743932 -1.013298268
223 75 5 47.934275797 24.045567997 -0.352671151
224 75 2 48.295842248 24.226942817 -0.058778525
225 75 7 47.922195662 24.039508164 -0.890015274
226 76 1 47.680147587 24.294248631 -0.000000000
227 76 2 48.125650849 24.521243881 -0.000000000
228 76 7 47.388987419 24.145895116 -0.426776696
229 77 5 47.628333541 24.646013481 0.352671151
230 77 2 47.987592281 24.831917440 0.058778525
231 77 7 47.170747038 24.409228309 0.199476074
232 78 5 47.738108341 25.084327990 0.570633910
233 78 2 47.874884101 25.156197784 0.095105652
234 78 7 47.289412642 24.848557649 0.749535764
235 79 1 47.906729167 25.558324871 0.570633910
236 79 2 47.770407676 25.485597114 0.095105652
237 79 7 47.637710451 25.414802909 1.013298268
238 80 5 48.008991788 26.001696709 0.352671151
239 80 2 47.653300869 25.809054309 0.058778525
240 80 7 48.020875618 26.008132998 0.890015274
241 81 5 47.945087538 26.358034924 0.000000000
242 81 2 47.506934198 26.117158087 0.000000000
243 81 7 48.231444139 26.515460798 0.426776696
244 82 1 47.678462842 26.602926630 -0.352671151
245 82 2 47.325220759 26.405829814 -0.058778525
246 82 7 48.128385952 26.853968102 -0.199476074
247 83 5 47.249316565 26.754153955 -0.570633910
248 83 2 47.114865781 26.678023394 -0.095105652
249 83 7 47.690385135 27.003901830 -0.749535764
250 84 5 46.758756205 26.865762912 -0.570633910
251 84 2 46.892725996 26.942736744 -0.095105652
252 84 7 47.023134043 27.017664137 -1.013298268
253 85 1 46.329854746 27.007937641 -0.352671151
254 85 2 46.679319109 27.211657506 -0.058778525
255 85 7 46.318178948 27.001131248 -0.890015274
256 86 5 46.060613214 27.240170719 0.000000000
257 86 2 46.490984228 27.494691427 0.000000000
258 86 7 45.779342779 27.073827847 -0.426776696
259 87 5 45.986813914 27.587988011 0.352671151
260 87 2 46.333690733 27.796083173 0.058778525
261 87 7 45.544998217 27.322937986 0.199476074
262 88 1 46.068850103 28.032330423 0.570633910
263 88 2 46.200843225 28.112646619 0.095105652
264 88 7 45.635843944 27.768851484 0.749535764
265 89 5 46.207375684 28.515979769 0.570633910
266 89 2 46.075889805 28.434835826 0.095105652
267 89 7 45.947899632 28.355849190 1.013298268
268 90 5 46.281596964 28.964897837 0.352671151
269 90 2 45.938704036 28.750301555 0.058778525
270 90 7 46.293053206 28.972067617 0.890015274
271 91 1 46.195444153 29.316520318 0.000000000
272 91 2 45.773280190 29.048606921 0.000000000
273 91 7 46.471350843 29.491616028 0.426776696
274 92 5 45.913968702 29.544187283 -0.352671151
275 92 2 45.573799473 29.325299139 -0.058778525
276 92 7 46.347240967 29.822984288 -0.199476074
277 93 5 45.476173606 29.668169878 -0.570633910
278 93 2 45.346768407 29.583747308 -0.095105652
279 93 7 45.900690028 29.945119857 -0.749535764
280 94 1 44.979573270 29.748756061 -0.570633910
281 94 2 45.108445475 29.833990035 -0.095105652
282 94 7 45.233891462 29.916957965 -1.013298268
283 95 5 44.542590925 29.863719295 -0.352671151
284 95 2 44.878574024 30.088980214 -0.058778525
285 95 7 44.531365544 29.856193203 -0.890015274
286 96 5 44.259298644 30.078588298 -0.000000000
287 96 2 44.672838931 30.359629987 -0.000000000
288 96 7 43.989027987 29.894912549 -0.426776696
289 97 1 44.163805341 30.421085355 0.352671151
290 97 2 44.496931275 30.650550465 0.058778525
291 97 7 43.739504095 30.128816509 0.199476074
292 98 5 44.217779159 30.869702054 0.570633910
293 98 2 44.344468728 30.958147681 0.095105652
294 98 7 43.802171419 30.579554350 0.749535764
295 99 5 44.325662798 31.361095122 0.570633910
296 99 2 44.199531447 31.271855231 0.095105652
297 99 7 44.076753446 31.184987888 1.013298268
298 100 1 44.371549821 31.813787745 0.352671151
299 100 2 44.042808126 31.578084495 0.058778525
300 100 7 44.382533263 31.821662721 0.890015274
301 101 5 44.263488455 32.159306800 0.000000000
302 101 2 43.858979957 31.865414174 0.000000000
303 101 7 44.527856355 32.351381323 0.426776696
304 102 5 43.968273105 32.368850527 -0.352671151
305 102 2 43.642519222 32.129034906 -0.058778525
306 102 7 44.383184597 32.674302780 -0.199476074
307 103 1 43.523556965 32.465099088 -0.570633910
308 103 2 43.399708055 32.372717688 -0.095105652
309 103 7 43.929845868 32.768158177 -0.749535764
310 104 5 43.022876508 32.514344460 -0.570633910
311 104 2 43.146142528 32.607502197 -0.095105652
312 104 7 43.266131377 32.698183227 -1.013298268
313 105 5 42.579537847 32.601642492 -0.352671151
314 105 2 42.900713710 32.847555463 -0.058778525
315 105 7 42.568807184 32.593426404 -0.890015274
316 106 1 42.283312842 32.798299431 0.000000000
317 106 2 42.678390348 33.104752958 0.000000000
318 106 7 42.025108598 32.598015689 -0.426776696
319 107 5 42.166502406 33.134124574 0.352671151
320 107 2 42.484562758 33.384054038 0.058778525
321 107 7 41.761390134 32.815790358 0.199476074
322 108 5 42.192200843 33.585245074 0.570633910
323 108 2 42.313086872 33.681471078 0.095105652
324 108 7 41.795631735 33.269573684 0.749535764
325 109 1 42.269016772 34.082442560 0.570633910
326 109 2 42.148737732 33.985458911 0.095105652
327 109 7 42.031656450 33.891053686 1.013298268
328 110 5 42.286388443 34.537123168 0.352671151
329 110 2 41.973095374 34.281243162 0.058778525
330 110 7 42.296855737 34.545672260 0.890015274
331 111 5 42.156844990 34.875175191 0.000000000
332 111 2 41.771588368 34.556463196 0.000000000
333 111 7 42.408630761 35.083470496 0.426776696
334 112 1 41.849054820 35.065768705 -0.352671151
335 112 2 41.539001886 34.805972050 -0.058778525
336 112 7 42.243968074 35.396670726 -0.199476074
337 113 5 41.399172729 35.133903385 -0.570633910
338 113 2 41.281368883 35.033927741 -0.095105652
339 113 7 41.785630676 35.461875547 -0.749535764
340 114 5 40.896388108 35.151613596 -0.570633910
341 114 2 41.013561468 35.252327445 -0.095105652
342 114 7 41.127619637 35.350363699 -1.013298268
343 115 1 40.448442786 35.210901900 -0.352671151
344 115 2 40.753543878 35.476496418 -0.058778525
345 115 7 40.438249189 35.202028241 -0.890015274
346 116 5 40.140454122 35.388570660 -0.000000000
347 116 2 40.515509657 35.719226593 -0.000000000
348 116 7 39.895335305 35.172469354 -0.426776696
349 117 5 40.002787549 35.716398541 0.352671151
350 117 2 40.304527081 35.985806000 0.058778525
351 117 7 39.618463045 35.373255275 0.199476074
352 118 1 40.000109186 36.168242476 0.570633910
353 118 2 40.114714593 36.271869096 0.095105652
354 118 7 39.624143787 35.828293211 0.749535764
355 119 5 40.045554248 36.669282168 0.570633910
356 119 2 39.931602204 36.564937511 0.095105652
357 119 7 39.820679709 36.463366978 1.013298268
358 120 5 40.034342008 37.124156344 0.352671151
359 120 2 39.737733990 36.849109424 0.058778525
360 120 7 40.044251845 37.133345813 0.890015274
361 121 1 39.883827717 37.453407197 0.000000000
362 121 2 39.519343403 37.111133644 0.000000000
363 121 7 40.122037676 37.677101239 0.426776696
364 122 5 39.564677435 37.624298315 -0.352671151
365 122 2 39.271549086 37.345545924 -0.058778525
366 122 7 39.938033908 37.979344185 -0.199476074
367 123 5 39.111404872 37.664050216 -0.570633910
368 123 2 39.000111007 37.556874886 -0.095105652
369 123 7 39.476506690 38.015641095 -0.749535764
370 124 1 38.608500348 37.650155372 -0.570633910
371 124 2 38.719118618 37.758027862 -0.095105652
372 124 7 38.826795972 37.863032435 -1.013298268
373 125 5 38.157716200 37.681199965 -0.352671151
374 125 2 38.445538427 37.965427849 -0.058778525
375 125 7 38.148099900 37.671703755 -0.890015274
376 126 5 37.839179368 37.839179368 0.000000000
377 126 2 38.192732759 38.192732759 0.000000000
378 126 7 37.608113350 37.608113350 -0.426776696
379 127 1 37.681199965 38.157716200 0.352671151
380 127 2 37.965427849 38.445538427 0.058778525
381 127 7 37.319179982 37.791118114 0.199476074
382 128 5 37.650155372 38.608500348 0.570633910
383 128 2 37.758027862 38.719118618 0.095105652
384 128 7 37.296277446 38.245614833 0.749535764
385 129 5 37.664050216 39.111404872 0.570633910
386 129 2 37.556874886 39.000111007 0.095105652
387 129 7 37.452548938 38.891776020 1.013298268
388 130 1 37.624298315 39.564677435 0.352671151
389 130 2 37.345545924 39.271549086 0.058778525
390 130 7 37.633611586 39.574471015 0.890015274
391 131 5 37.453407197 39.883827717 -0.000000000
392 131 2 37.111133644 39.519343403 -0.000000000
393 131 7 37.677101239 40.122037676 0.426776696
394 132 5 37.124156344 40.034342008 -0.352671151
395 132 2 36.849109424 39.737733990 -0.058778525
396 132 7 37.474482568 40.412130523 -0.199476074
397 133 1 36.669282168 40.045554248 -0.570633910
398 133 2 36.564937511 39.931602204 -0.095105652
399 133 7 37.011586967 40.419376275 -0.749535764
400 134 5 36.168242476 40.000109186 -0.570633910
401 134 2 36.271869096 40.114714593 -0.095105652
402 134 7 36.372740682 40.226273080 -1.013298268
403 135 5 35.716398541 40.002787549 -0.352671151
404 135 2 35.985806000 40.304527081 -0.058778525
405 135 7 35.707397489 39.992706264 -0.890015274
406 136 1 35.388570660 40.140454122 -0.000000000
407 136 2 35.719226593 40.515509657 -0.000000000
408 136 7 35.172469354 39.895335305 -0.426776696
409 137 5 35.210901900 40.448442786 0.352671151
410 137 2 35.476496418 40.753543878 0.058778525
411 137 7 34.872615165 40.059836674 0.199476074
412 138 5 35.151613596 40.896388108 0.570633910
413 138 2 35.252327445 41.013561468 0.095105652
414 138 7 34.821219737 40.511998486 0.749535764
415 139 1 35.133903385 41.399172729 0.570633910
416 139 2 35.033927741 41.281368883 0.095105652
417 139 7 34.936610066 41.166696989 1.013298268
418 140 5 35.065768705 41.849054820 0.352671151
419 140 2 34.805972050 41.539001886 0.058778525
420 140 7 35.074448655 41.859413860 0.890015274
421 141 5 34.875175191 42.156844990 0.000000000
422 141 2 34.556463196 41.771588368 0.000000000
423 141 7 35.083470496 42.408630761 0.426776696
424 142 1 34.537123168 42.286388443 -0.352671151
425 142 2 34.281243162 41.973095374 -0.058778525
426 142 7 34.863036566 42.685428644 -0.199476074
427 143 5 34.082442560 42.269016772 -0.570633910
428 143 2 33.985458911 42.148737732 -0.095105652
429 143 7 34.400599419 42.663594643 -0.749535764
430 144 5 33.585245074 42.192200843 -0.570633910
431 144 2 33.681471078 42.313086872 -0.095105652
432 144 7 33.775138801 42.430759003 -1.013298268
433 145 1 33.134124574 42.166502406 -0.352671151
434 145 2 33.384054038 42.484562758 -0.058778525
435 145 7 33.125774293 42.155875833 -0.890015274
436 146 5 32.798299431 42.283312842 0.000000000
437 146 2 33.104752958 42.678390348 0.000000000
438 146 7 32.598015689 42.025108598 -0.426776696
439 147 5 32.601642492 42.579537847 0.352671151
440 147 2 32.847555463 42.900713710 0.058778525
441 147 7 32.288424068 42.170457361 0.199476074
442 148 1 32.514344460 43.022876508 0.570633910
443 148 2 32.607502197 43.146142528 0.095105652
444 148 7 32.208738582 42.618499789 0.749535764
445 149 5 32.465099088 43.523556965 0.570633910
446 149 2 32.372717688 43.399708055 0.095105652
447 149 7 32.282792355 43.279151813 1.013298268
448 150 5 32.368850527 43.968273105 0.352671151
449 150 2 32.129034906 43.642519222 0.058778525
450 150 7 32.376862899 43.979156722 0.890015274
451 151 1 32.159306800 44.263488455 0.000000000
452 151 2 31.865414174 43.858979957 0.000000000
453 151 7 32.351381323 44.527856355 0.426776696
454 152 5 31.813787745 44.371549821 -0.352671151
455 152 2 31.578084495 44.042808126 -0.058778525
456 152 7 32.114002087 44.790266879 -0.199476074
457 153 5 31.361095122 44.325662798 -0.570633910
458 153 2 31.271855231 44.199531447 -0.095105652
459 153 7 31.653848422 44.739439295 -0.749535764
460 154 1 30.869702054 44.217779159 -0.570633910
461 154 2 30.958147681 44.344468728 -0.095105652
462 154 7 31.044241878 44.467790105 -1.013298268
463 155 5 30.421085355 44.163805341 -0.352671151
464 155 2 30.650550465 44.496931275 -0.058778525
465 155 7 30.413418799 44.152675420 -0.890015274
466 156 5 30.078588298 44.259298644 -0.000000000
467 156 2 30.359629987 44.672838931 -0.000000000
468 156 7 29.894912549 43.989027987 -0.426776696
469 157 1 29.863719295 44.542590925 0.352671151
470 157 2 30.088980214 44.878574024 0.058778525
471 157 7 29.576805312 44.114650518 0.199476074
472 158 5 29.748756061 44.979573270 0.570633910
473 158 2 29.833990035 45.108445475 0.095105652
474 158 7 29.469144250 44.556805344 0.749535764
475 159 5 29.668169878 45.476173606 0.570633910
476 159 2 29.583747308 45.346768407 0.095105652
477 159 7 29.501569212 45.220803597 1.013298268
478 160 1 29.544187283 45.913968702 0.352671151
479 160 2 29.325299139 45.573799473 0.058778525
480 160 7 29.551500457 45.925333944 0.890015274
481 161 5 29.316520318 46.195444153 0.000000000
482 161 2 29.048606921 45.773280190 0.000000000
483 161 7 29.491616028 46.471350843 0.426776696
484 162 5 28.964897837 46.281596964 -0.352671151
485 162 2 28.750301555 45.938704036 -0.058778525
486 162 7 29.238228312 46.718338394 -0.199476074
487 163 1 28.515979769 46.207375684 -0.570633910
488 163 2 28.434835826 46.075889805 -0.095105652
489 163 7 28.782174146 46.638717818 -0.749535764
490 164 5 28.032330423 46.068850103 -0.570633910
491 164 2 28.112646619 46.200843225 -0.095105652
492 164 7 28.190827515 46.329327155 -1.013298268
493 165 5 27.587988011 45.986813914 -0.352671151
494 165 2 27.796083173 46.333690733 -0.058778525
495 165 7 27.581035436 45.975224568 -0.890015274
496 166 1 27.240170719 46.060613214 -0.000000000
497 166 2 27.494691427 46.490984228 -0.000000000
498 166 7 27.073827847 45.779342779 -0.426776696
499 167 5 27.007937641 46.329854746 0.352671151
500 167 2 27.211657506 46.679319109 0.058778525
501 167 7 26.748460418 45.884743304 0.199476074
502 168 5 26.865762912 46.758756205 0.570633910
503 168 2 26.942736744 46.892725996 0.095105652
504 168 7 26.613248670 46.319265544 0.749535764
505 169 1 26.754153955 47.249316565 0.570633910
506 169 2 26.678023394 47.114865781 0.095105652
507 169 7 26.603916852 46.983989528 1.013298268
508 170 5 26.602926630 47.678462842 0.352671151
509 170 2 26.405829814 47.325220759 0.058778525
510 170 7 26.609511744 47.690264855 0.890015274
511 171 5 26.358034924 47.945087538 -0.000000000
512 171 2 26.117158087 47.506934198 -0.000000000
513 171 7 26.515460798 48.231444139 0.426776696
514 172 1 26.001696709 48.008991788 -0.352671151
515 172 2 25.809054309 47.653300869 -0.058778525
516 172 7 26.247064608 48.462033971 -0.199476074
517 173 5 25.558324871 47.906729167 -0.570633910
518 173 2 25.485597114 47.770407676 -0.095105652
519 173 7 25.796909778 48.353934630 -0.749535764
520 174 5 25.084327990 47.738108341 -0.570633910
521 174 2 25.156197784 47.874884101 -0.095105652
522 174 7 25.226156835 48.008023517 -1.013298268
523 175 1 24.646013481 47.628333541 -0.352671151
524 175 2 24.831917440 47.987592281 -0.058778525
525 175 7 24.639802327 47.616330508 -0.890015274
526 176 5 24.294248631 47.680147587 -0.000000000
527 176 2 24.521243881 48.125650849 -0.000000000
528 176 7 24.145895116 47.388987419 -0.426776696
529 177 5 24.045567997 47.934275797 0.352671151
530 177 2 24.226942817 48.295842248 0.058778525
531 177 7 23.814551571 47.473749970 0.199476074
532 178 1 23.876742871 48.353403691 0.570633910
533 178 2 23.945152780 48.491942351 0.095105652
534 178 7 23.652322755 47.898924764 0.749535764
535 179 5 23.734551609 48.835988059 0.570633910
536 179 2 23.667013508 48.697022305 0.095105652
537 179 7 23.601270988 48.561751118 1.013298268
538 180 5 23.556676379 49.254791871 0.352671151
539 180 2 23.382148742 48.889871018 0.058778525
540 180 7 23.562507444 49.266984078 0.890015274
541 181 1 23.295526407 49.505513566 0.000000000
542 181 2 23.082636762 49.053100040 0.000000000
543 181 7 23.434661157 49.801189961 0.426776696
544 182 5 22.935878764 49.546917054 -0.352671151
545 182 2 22.765950517 49.179831893 -0.058778525
546 182 7 23.152315731 50.014472040 -0.199476074
547 183 5 22.499802942 49.417016677 -0.570633910
548 183 2 22.435778394 49.276397572 -0.095105652
549 183 7 22.709836792 49.878320553 -0.749535764
550 184 1 22.037329174 49.218966076 -0.570633910
551 184 2 22.100468929 49.359984681 -0.095105652
552 184 7 22.161930039 49.497254142 -1.013298268
553 185 5 21.606772396 49.081885895 -0.352671151
554 185 2 21.769751473 49.452108727 -0.058778525
555 185 7 21.601327175 49.069516546 -0.890015274
556 186 5 21.252448243 49.111510200 -0.000000000
557 186 2 21.451022188 49.570387513 -0.000000000
558 186 7 21.122669567 48.811609376 -0.426776696
559 187 1 20.988301480 49.349522160 0.352671151
560 187 2 21.146615454 49.721763761 0.058778525
561 187 7 20.786657569 48.875399435 0.199476074
562 188 5 20.793492235 49.757222384 0.570633910
563 188 2 20.853068238 49.899783163 0.095105652
564 188 7 20.598051928 49.289548812 0.749535764
565 189 5 20.621279831 50.229926218 0.570633910
566 189 2 20.562600733 50.086993929 0.095105652
567 189 7 20.505481689 49.947861662 1.013298268
568 190 1 20.417458688 50.636734738 0.352671151
569 190 2 20.266189012 50.261575293 0.058778525
570 190 7 20.422512692 50.649269023 0.890015274
571 191 5 20.141081091 50.870563949 0.000000000
572 191 2 19.957018815 50.405675706 0.000000000
573 191 7 20.261375616 51.174393237 0.426776696
574 192 5 19.779543383 50.889303275 -0.352671151
575 192 2 19.632999919 50.512272590 -0.058778525
576 192 7 19.966195241 51.369525837 -0.199476074
577 193 1 19.352484570 50.732277799 -0.570633910
578 193 2 19.297415906 50.587916039 -0.095105652
579 193 7 19.533138456 51.205859531 -0.749535764
580 194 5 18.903359089 50.505579037 -0.570633910
581 194 2 18.957519620 50.650283952 -0.095105652
582 194 7 19.010240230 50.791141719 -1.013298268
583 195 5 18.482259251 50.341734469 -0.352671151
584 195 2 18.621670242 50.721460291 -0.058778525
585 195 7 18.477601453 50.329047620 -0.890015274
586 196 1 18.126774151 50.349052120 -0.000000000
587 196 2 18.296143111 50.819492504 -0.000000000
588 196 7 18.016082492 50.041594211 -0.426776696
589 197 5 17.848203727 50.570008504 0.352671151
590 197 2 17.982832061 50.951456189 0.058778525
591 197 7 17.676728125 50.084160026 0.199476074
592 198 5 17.628179184 50.964672052 0.570633910
593 198 2 17.678686162 51.110692327 0.095105652
594 198 7 17.462490000 50.485649528 0.749535764
595 199 1 17.426625282 51.425629806 0.570633910
596 199 2 17.377036768 51.279295071 0.095105652
597 199 7 17.328766621 51.136850815 1.013298268
598 200 5 17.197662616 51.818837548 0.352671151
599 200 2 17.070247892 51.434920092 0.058778525
600 200 7 17.201919612 51.831664442 0.890015274
601 201 5 16.907148129 52.034851457 0.000000000
602 201 2 16.752639632 51.559323199 0.000000000
603 201 7 17.008127681 52.345634563 0.426776696
604 202 1 16.545147182 52.030852664 -0.352671151
605 202 2 16.422566840 51.645364423 -0.058778525
606 202 7 16.701277300 52.521847584 -0.199476074
607 203 5 16.128790782 51.847321798 -0.570633910
608 203 2 16.082895334 51.699787112 -0.095105652
609 203 7 16.279351747 52.331312376 -0.749535764
610 204 5 15.694786081 51.592869552 -0.570633910
611 204 2 15.739753641 51.740689693 -0.095105652
612 204 7 15.783525687 51.884579863 -1.013298268
613 205 1 15.284805073 51.402907216 -0.352671151
614 205 2 15.400097787 51.790637425 -0.058778525
615 205 7 15.280953080 51.389952936 -0.890015274
616 206 5 14.929561962 51.387889333 -0.000000000
617 206 2 15.069057515 51.868036176 -0.000000000
618 206 7 14.838394170 51.074087735 -0.426776696
619 207 5 14.637667267 51.590918129 0.352671151
620 207 2 14.748078644 51.980066497 0.058778525
621 207 7 14.497036712 51.095261320 0.199476074
622 208 1 14.393295763 51.970987443 0.570633910