LAMMPS data file initial configuration linear dsDNA molecule with phosphates; timestep = 0
6000 atoms
4996 bonds
5994 angles
1998 dihedrals

8 atom types
3 bond types
3 angle types
1 dihedral types

-50 50 xlo xhi
-50 50 ylo yhi
-10 340.000000000 zlo zhi

Masses

1 1
2 1
3 1
4 1
5 1
6 1
7 1
8 1

Atoms

1 1 1 0.561231024 0.000000000 0.000000000
2 1 2 0.000000000 0.000000000 0.000000000
3 1 7 0.926776696 -0.426776696 0.000000000
4 2 5 0.454045436 0.329883319 0.340000000
5 2 2 0.000000000 0.000000000 0.340000000
6 2 7 1.000631145 0.199476074 0.340000000
7 3 5 0.173429924 0.533762423 0.680000000
8 3 2 0.000000000 0.000000000 0.680000000
9 3 7 0.692278507 0.749535764 0.680000000
10 4 1 -0.173429924 0.533762423 1.020000000
11 4 2 -0.000000000 0.000000000 1.020000000
12 4 7 0.119499009 1.013298268 1.020000000
13 5 5 -0.454045436 0.329883319 1.360000000
14 5 2 -0.000000000 0.000000000 1.360000000
15 5 7 -0.498925049 0.890015274 1.360000000
16 6 5 -0.561231024 -0.000000000 1.700000000
17 6 2 -0.000000000 -0.000000000 1.700000000
18 6 7 -0.926776696 0.426776696 1.700000000
19 7 1 -0.454045436 -0.329883319 2.040000000
20 7 2 -0.000000000 -0.000000000 2.040000000
21 7 7 -1.000631145 -0.199476074 2.040000000
22 8 5 -0.173429924 -0.533762423 2.380000000
23 8 2 -0.000000000 -0.000000000 2.380000000
24 8 7 -0.692278507 -0.749535764 2.380000000
25 9 5 0.173429924 -0.533762423 2.720000000
26 9 2 0.000000000 -0.000000000 2.720000000
27 9 7 -0.119499009 -1.013298268 2.720000000
28 10 1 0.454045436 -0.329883319 3.060000000
29 10 2 0.000000000 -0.000000000 3.060000000
30 10 7 0.498925049 -0.890015274 3.060000000
31 11 5 0.561231024 0.000000000 3.400000000
32 11 2 0.000000000 0.000000000 3.400000000
33 11 7 0.926776696 -0.426776696 3.400000000
34 12 5 0.454045436 0.329883319 3.740000000
35 12 2 0.000000000 0.000000000 3.740000000
36 12 7 1.000631145 0.199476074 3.740000000
37 13 1 0.173429924 0.533762423 4.080000000
38 13 2 0.000000000 0.000000000 4.080000000
39 13 7 0.692278507 0.749535764 4.080000000
40 14 5 -0.173429924 0.533762423 4.420000000
41 14 2 -0.000000000 0.000000000 4.420000000
42 14 7 0.119499009 1.013298268 4.420000000
43 15 5 -0.454045436 0.329883319 4.760000000
44 15 2 -0.000000000 0.000000000 4.760000000
45 15 7 -0.498925049 0.890015274 4.760000000
46 16 1 -0.561231024 0.000000000 5.100000000
47 16 2 -0.000000000 0.000000000 5.100000000
48 16 7 -0.926776696 0.426776696 5.100000000
49 17 5 -0.454045436 -0.329883319 5.440000000
50 17 2 -0.000000000 -0.000000000 5.440000000
51 17 7 -1.000631145 -0.199476074 5.440000000
52 18 5 -0.173429924 -0.533762423 5.780000000
53 18 2 -0.000000000 -0.000000000 5.780000000
54 18 7 -0.692278507 -0.749535764 5.780000000
55 19 1 0.173429924 -0.533762423 6.120000000
56 19 2 0.000000000 -0.000000000 6.120000000
57 19 7 -0.119499009 -1.013298268 6.120000000
58 20 5 0.454045436 -0.329883319 6.460000000
59 20 2 0.000000000 -0.000000000 6.460000000
60 20 7 0.498925049 -0.890015274 6.460000000
61 21 5 0.561231024 0.000000000 6.800000000
62 21 2 0.000000000 0.000000000 6.800000000
63 21 7 0.926776696 -0.426776696 6.800000000
64 22 1 0.454045436 0.329883319 7.140000000
65 22 2 0.000000000 0.000000000 7.140000000
66 22 7 1.000631145 0.199476074 7.140000000
67 23 5 0.173429924 0.533762423 7.480000000
68 23 2 0.000000000 0.000000000 7.480000000
69 23 7 0.692278507 0.749535764 7.480000000
70 24 5 -0.173429924 0.533762423 7.820000000
71 24 2 -0.000000000 0.000000000 7.820000000
72 24 7 0.119499009 1.013298268 7.820000000
73 25 1 -0.454045436 0.329883319 8.160000000
74 25 2 -0.000000000 0.000000000 8.160000000
75 25 7 -0.498925049 0.890015274 8.160000000
76 26 5 -0.561231024 0.000000000 8.500000000
77 26 2 -0.000000000 0.000000000 8.500000000
78 26 7 -0.926776696 0.426776696 8.500000000
79 27 5 -0.454045436 -0.329883319 8.840000000
80 27 2 -0.000000000 -0.000000000 8.840000000
81 27 7 -1.000631145 -0.199476074 8.840000000
82 28 1 -0.173429924 -0.533762423 9.180000000
83 28 2 -0.000000000 -0.000000000 9.180000000
84 28 7 -0.692278507 -0.749535764 9.180000000
85 29 5 0.173429924 -0.533762423 9.520000000
86 29 2 0.000000000 -0.000000000 9.520000000
87 29 7 -0.119499009 -1.013298268 9.520000000
88 30 5 0.454045436 -0.329883319 9.860000000
89 30 2 0.000000000 -0.000000000 9.860000000
90 30 7 0.498925049 -0.890015274 9.860000000
91 31 1 0.561231024 -0.000000000 10.200000000
92 31 2 0.000000000 -0.000000000 10.200000000
93 31 7 0.926776696 -0.426776696 10.200000000
94 32 5 0.454045436 0.329883319 10.540000000
95 32 2 0.000000000 0.000000000 10.540000000
96 32 7 1.000631145 0.199476074 10.540000000
97 33 5 0.173429924 0.533762423 10.880000000
98 33 2 0.000000000 0.000000000 10.880000000
99 33 7 0.692278507 0.749535764 10.880000000
100 34 1 -0.173429924 0.533762423 11.220000000
101 34 2 -0.000000000 0.000000000 11.220000000
102 34 7 0.119499009 1.013298268 11.220000000
103 35 5 -0.454045436 0.329883319 11.560000000
104 35 2 -0.000000000 0.000000000 11.560000000
105 35 7 -0.498925049 0.890015274 11.560000000
106 36 5 -0.561231024 -0.000000000 11.900000000
107 36 2 -0.000000000 -0.000000000 11.900000000
108 36 7 -0.926776696 0.426776696 11.900000000
109 37 1 -0.454045436 -0.329883319 12.240000000
110 37 2 -0.000000000 -0.000000000 12.240000000
111 37 7 -1.000631145 -0.199476074 12.240000000
112 38 5 -0.173429924 -0.533762423 12.580000000
113 38 2 -0.000000000 -0.000000000 12.580000000
114 38 7 -0.692278507 -0.749535764 12.580000000
115 39 5 0.173429924 -0.533762423 12.920000000
116 39 2 0.000000000 -0.000000000 12.920000000
117 39 7 -0.119499009 -1.013298268 12.920000000
118 40 1 0.454045436 -0.329883319 13.260000000
119 40 2 0.000000000 -0.000000000 13.260000000
120 40 7 0.498925049 -0.890015274 13.260000000
121 41 5 0.561231024 0.000000000 13.600000000
122 41 2 0.000000000 0.000000000 13.600000000
123 41 7 0.926776696 -0.426776696 13.600000000
124 42 5 0.454045436 0.329883319 13.940000000
125 42 2 0.000000000 0.000000000 13.940000000
126 42 7 1.000631145 0.199476074 13.940000000
127 43 1 0.173429924 0.533762423 14.280000000
128 43 2 0.000000000 0.000000000 14.280000000
129 43 7 0.692278507 0.749535764 14.280000000
130 44 5 -0.173429924 0.533762423 14.620000000
131 44 2 -0.000000000 0.000000000 14.620000000
132 44 7 0.119499009 1.013298268 14.620000000
133 45 5 -0.454045436 0.329883319 14.960000000
134 45 2 -0.000000000 0.000000000 14.960000000
135 45 7 -0.498925049 0.890015274 14.960000000
136 46 1 -0.561231024 0.000000000 15.300000000
137 46 2 -0.000000000 0.000000000 15.300000000
138 46 7 -0.926776696 0.426776696 15.300000000
139 47 5 -0.454045436 -0.329883319 15.640000000
140 47 2 -0.000000000 -0.000000000 15.640000000
141 47 7 -1.000631145 -0.199476074 15.640000000
142 48 5 -0.173429924 -0.533762423 15.980000000
143 48 2 -0.000000000 -0.000000000 15.980000000
144 48 7 -0.692278507 -0.749535764 15.980000000
145 49 1 0.173429924 -0.533762423 16.320000000
146 49 2 0.000000000 -0.000000000 16.320000000
147 49 7 -0.119499009 -1.013298268 16.320000000
148 50 5 0.454045436 -0.329883319 16.660000000
149 50 2 0.000000000 -0.000000000 16.660000000
150 50 7 0.498925049 -0.890015274 16.660000000
151 51 5 0.561231024 -0.000000000 17.000000000
152 51 2 0.000000000 -0.000000000 17.000000000
153 51 7 0.926776696 -0.426776696 17.000000000
154 52 1 0.454045436 0.329883319 17.340000000
155 52 2 0.000000000 0.000000000 17.340000000
156 52 7 1.000631145 0.199476074 17.340000000
157 53 5 0.173429924 0.533762423 17.680000000
158 53 2 0.000000000 0.000000000 17.680000000
159 53 7 0.692278507 0.749535764 17.680000000
160 54 5 -0.173429924 0.533762423 18.020000000
161 54 2 -0.000000000 0.000000000 18.020000000
162 54 7 0.119499009 1.013298268 18.020000000
163 55 1 -0.454045436 0.329883319 18.360000000
164 55 2 -0.000000000 0.000000000 18.360000000
165 55 7 -0.498925049 0.890015274 18.360000000
166 56 5 -0.561231024 0.000000000 18.700000000
167 56 2 -0.000000000 0.000000000 18.700000000
168 56 7 -0.926776696 0.426776696 18.700000000
169 57 5 -0.454045436 -0.329883319 19.040000000
170 57 2 -0.000000000 -0.000000000 19.040000000
171 57 7 -1.000631145 -0.199476074 19.040000000
172 58 1 -0.173429924 -0.533762423 19.380000000
173 58 2 -0.000000000 -0.000000000 19.380000000
174 58 7 -0.692278507 -0.749535764 19.380000000
175 59 5 0.173429924 -0.533762423 19.720000000
176 59 2 0.000000000 -0.000000000 19.720000000
177 59 7 -0.119499009 -1.013298268 19.720000000
178 60 5 0.454045436 -0.329883319 20.060000000
179 60 2 0.000000000 -0.000000000 20.060000000
180 60 7 0.498925049 -0.890015274 20.060000000
181 61 1 0.561231024 -0.000000000 20.400000000
182 61 2 0.000000000 -0.000000000 20.400000000
183 61 7 0.926776696 -0.426776696 20.400000000
184 62 5 0.454045436 0.329883319 20.740000000
185 62 2 0.000000000 0.000000000 20.740000000
186 62 7 1.000631145 0.199476074 20.740000000
187 63 5 0.173429924 0.533762423 21.080000000
188 63 2 0.000000000 0.000000000 21.080000000
189 63 7 0.692278507 0.749535764 21.080000000
190 64 1 -0.173429924 0.533762423 21.420000000
191 64 2 -0.000000000 0.000000000 21.420000000
192 64 7 0.119499009 1.013298268 21.420000000
193 65 5 -0.454045436 0.329883319 21.760000000
194 65 2 -0.000000000 0.000000000 21.760000000
195 65 7 -0.498925049 0.890015274 21.760000000
196 66 5 -0.561231024 -0.000000000 22.100000000
197 66 2 -0.000000000 -0.000000000 22.100000000
198 66 7 -0.926776696 0.426776696 22.100000000
199 67 1 -0.454045436 -0.329883319 22.440000000
200 67 2 -0.000000000 -0.000000000 22.440000000
201 67 7 -1.000631145 -0.199476074 22.440000000
202 68 5 -0.173429924 -0.533762423 22.780000000
203 68 2 -0.000000000 -0.000000000 22.780000000
204 68 7 -0.692278507 -0.749535764 22.780000000
205 69 5 0.173429924 -0.533762423 23.120000000
206 69 2 0.000000000 -0.000000000 23.120000000
207 69 7 -0.119499009 -1.013298268 23.120000000
208 70 1 0.454045436 -0.329883319 23.460000000
209 70 2 0.000000000 -0.000000000 23.460000000
210 70 7 0.498925049 -0.890015274 23.460000000
211 71 5 0.561231024 0.000000000 23.800000000
212 71 2 0.000000000 0.000000000 23.800000000
213 71 7 0.926776696 -0.426776696 23.800000000
214 72 5 0.454045436 0.329883319 24.140000000
215 72 2 0.000000000 0.000000000 24.140000000
216 72 7 1.000631145 0.199476074 24.140000000
217 73 1 0.173429924 0.533762423 24.480000000
218 73 2 0.000000000 0.000000000 24.480000000
219 73 7 0.692278507 0.749535764 24.480000000
220 74 5 -0.173429924 0.533762423 24.820000000
221 74 2 -0.000000000 0.000000000 24.820000000
222 74 7 0.119499009 1.013298268 24.820000000
223 75 5 -0.454045436 0.329883319 25.160000000
224 75 2 -0.000000000 0.000000000 25.160000000
225 75 7 -0.498925049 0.890015274 25.160000000
226 76 1 -0.561231024 0.000000000 25.500000000
227 76 2 -0.000000000 0.000000000 25.500000000
228 76 7 -0.926776696 0.426776696 25.500000000
229 77 5 -0.454045436 -0.329883319 25.840000000
230 77 2 -0.000000000 -0.000000000 25.840000000
231 77 7 -1.000631145 -0.199476074 25.840000000
232 78 5 -0.173429924 -0.533762423 26.180000000
233 78 2 -0.000000000 -0.000000000 26.180000000
234 78 7 -0.692278507 -0.749535764 26.180000000
235 79 1 0.173429924 -0.533762423 26.520000000
236 79 2 0.000000000 -0.000000000 26.520000000
237 79 7 -0.119499009 -1.013298268 26.520000000
238 80 5 0.454045436 -0.329883319 26.860000000
239 80 2 0.000000000 -0.000000000 26.860000000
240 80 7 0.498925049 -0.890015274 26.860000000
241 81 5 0.561231024 0.000000000 27.200000000
242 81 2 0.000000000 0.000000000 27.200000000
243 81 7 0.926776696 -0.426776696 27.200000000
244 82 1 0.454045436 0.329883319 27.540000000
245 82 2 0.000000000 0.000000000 27.540000000
246 82 7 1.000631145 0.199476074 27.540000000
247 83 5 0.173429924 0.533762423 27.880000000
248 83 2 0.000000000 0.000000000 27.880000000
249 83 7 0.692278507 0.749535764 27.880000000
250 84 5 -0.173429924 0.533762423 28.220000000
251 84 2 -0.000000000 0.000000000 28.220000000
252 84 7 0.119499009 1.013298268 28.220000000
253 85 1 -0.454045436 0.329883319 28.560000000
254 85 2 -0.000000000 0.000000000 28.560000000
255 85 7 -0.498925049 0.890015274 28.560000000
256 86 5 -0.561231024 -0.000000000 28.900000000
257 86 2 -0.000000000 -0.000000000 28.900000000
258 86 7 -0.926776696 0.426776696 28.900000000
259 87 5 -0.454045436 -0.329883319 29.240000000
260 87 2 -0.000000000 -0.000000000 29.240000000
261 87 7 -1.000631145 -0.199476074 29.240000000
262 88 1 -0.173429924 -0.533762423 29.580000000
263 88 2 -0.000000000 -0.000000000 29.580000000
264 88 7 -0.692278507 -0.749535764 29.580000000
265 89 5 0.173429924 -0.533762423 29.920000000
266 89 2 0.000000000 -0.000000000 29.920000000
267 89 7 -0.119499009 -1.013298268 29.920000000
268 90 5 0.454045436 -0.329883319 30.260000000
269 90 2 0.000000000 -0.000000000 30.260000000
270 90 7 0.498925049 -0.890015274 30.260000000
271 91 1 0.561231024 -0.000000000 30.600000000
272 91 2 0.000000000 -0.000000000 30.600000000
273 91 7 0.926776696 -0.426776696 30.600000000
274 92 5 0.454045436 0.329883319 30.940000000
275 92 2 0.000000000 0.000000000 30.940000000
276 92 7 1.000631145 0.199476074 30.940000000
277 93 5 0.173429924 0.533762423 31.280000000
278 93 2 0.000000000 0.000000000 31.280000000
279 93 7 0.692278507 0.749535764 31.280000000
280 94 1 -0.173429924 0.533762423 31.620000000
281 94 2 -0.000000000 0.000000000 31.620000000
282 94 7 0.119499009 1.013298268 31.620000000
283 95 5 -0.454045436 0.329883319 31.960000000
284 95 2 -0.000000000 0.000000000 31.960000000
285 95 7 -0.498925049 0.890015274 31.960000000
286 96 5 -0.561231024 0.000000000 32.300000000
287 96 2 -0.000000000 0.000000000 32.300000000
288 96 7 -0.926776696 0.426776696 32.300000000
289 97 1 -0.454045436 -0.329883319 32.640000000
290 97 2 -0.000000000 -0.000000000 32.640000000
291 97 7 -1.000631145 -0.199476074 32.640000000
292 98 5 -0.173429924 -0.533762423 32.980000000
293 98 2 -0.000000000 -0.000000000 32.980000000
294 98 7 -0.692278507 -0.749535764 32.980000000
295 99 5 0.173429924 -0.533762423 33.320000000
296 99 2 0.000000000 -0.000000000 33.320000000
297 99 7 -0.119499009 -1.013298268 33.320000000
298 100 1 0.454045436 -0.329883319 33.660000000
299 100 2 0.000000000 -0.000000000 33.660000000
300 100 7 0.498925049 -0.890015274 33.660000000
301 101 5 0.561231024 -0.000000000 34.000000000
302 101 2 0.000000000 -0.000000000 34.000000000
303 101 7 0.926776696 -0.426776696 34.000000000
304 102 5 0.454045436 0.329883319 34.340000000
305 102 2 0.000000000 0.000000000 34.340000000
306 102 7 1.000631145 0.199476074 34.340000000
307 103 1 0.173429924 0.533762423 34.680000000
308 103 2 0.000000000 0.000000000 34.680000000
309 103 7 0.692278507 0.749535764 34.680000000
310 104 5 -0.173429924 0.533762423 35.020000000
311 104 2 -0.000000000 0.000000000 35.020000000
312 104 7 0.119499009 1.013298268 35.020000000
313 105 5 -0.454045436 0.329883319 35.360000000
314 105 2 -0.000000000 0.000000000 35.360000000
315 105 7 -0.498925049 0.890015274 35.360000000
316 106 1 -0.561231024 0.000000000 35.700000000
317 106 2 -0.000000000 0.000000000 35.700000000
318 106 7 -0.926776696 0.426776696 35.700000000
319 107 5 -0.454045436 -0.329883319 36.040000000
320 107 2 -0.000000000 -0.000000000 36.040000000
321 107 7 -1.000631145 -0.199476074 36.040000000
322 108 5 -0.173429924 -0.533762423 36.380000000
323 108 2 -0.000000000 -0.000000000 36.380000000
324 108 7 -0.692278507 -0.749535764 36.380000000
325 109 1 0.173429924 -0.533762423 36.720000000
326 109 2 0.000000000 -0.000000000 36.720000000
327 109 7 -0.119499009 -1.013298268 36.720000000
328 110 5 0.454045436 -0.329883319 37.060000000
329 110 2 0.000000000 -0.000000000 37.060000000
330 110 7 0.498925049 -0.890015274 37.060000000
331 111 5 0.561231024 -0.000000000 37.400000000
332 111 2 0.000000000 -0.000000000 37.400000000
333 111 7 0.926776696 -0.426776696 37.400000000
334 112 1 0.454045436 0.329883319 37.740000000
335 112 2 0.000000000 0.000000000 37.740000000
336 112 7 1.000631145 0.199476074 37.740000000
337 113 5 0.173429924 0.533762423 38.080000000
338 113 2 0.000000000 0.000000000 38.080000000
339 113 7 0.692278507 0.749535764 38.080000000
340 114 5 -0.173429924 0.533762423 38.420000000
341 114 2 -0.000000000 0.000000000 38.420000000
342 114 7 0.119499009 1.013298268 38.420000000
343 115 1 -0.454045436 0.329883319 38.760000000
344 115 2 -0.000000000 0.000000000 38.760000000
345 115 7 -0.498925049 0.890015274 38.760000000
346 116 5 -0.561231024 0.000000000 39.100000000
347 116 2 -0.000000000 0.000000000 39.100000000
348 116 7 -0.926776696 0.426776696 39.100000000
349 117 5 -0.454045436 -0.329883319 39.440000000
350 117 2 -0.000000000 -0.000000000 39.440000000
351 117 7 -1.000631145 -0.199476074 39.440000000
352 118 1 -0.173429924 -0.533762423 39.780000000
353 118 2 -0.000000000 -0.000000000 39.780000000
354 118 7 -0.692278507 -0.749535764 39.780000000
355 119 5 0.173429924 -0.533762423 40.120000000
356 119 2 0.000000000 -0.000000000 40.120000000
357 119 7 -0.119499009 -1.013298268 40.120000000
358 120 5 0.454045436 -0.329883319 40.460000000
359 120 2 0.000000000 -0.000000000 40.460000000
360 120 7 0.498925049 -0.890015274 40.460000000
361 121 1 0.561231024 -0.000000000 40.800000000
362 121 2 0.000000000 -0.000000000 40.800000000
363 121 7 0.926776696 -0.426776696 40.800000000
364 122 5 0.454045436 0.329883319 41.140000000
365 122 2 0.000000000 0.000000000 41.140000000
366 122 7 1.000631145 0.199476074 41.140000000
367 123 5 0.173429924 0.533762423 41.480000000
368 123 2 0.000000000 0.000000000 41.480000000
369 123 7 0.692278507 0.749535764 41.480000000
370 124 1 -0.173429924 0.533762423 41.820000000
371 124 2 -0.000000000 0.000000000 41.820000000
372 124 7 0.119499009 1.013298268 41.820000000
373 125 5 -0.454045436 0.329883319 42.160000000
374 125 2 -0.000000000 0.000000000 42.160000000
375 125 7 -0.498925049 0.890015274 42.160000000
376 126 5 -0.561231024 -0.000000000 42.500000000
377 126 2 -0.000000000 -0.000000000 42.500000000
378 126 7 -0.926776696 0.426776696 42.500000000
379 127 1 -0.454045436 -0.329883319 42.840000000
380 127 2 -0.000000000 -0.000000000 42.840000000
381 127 7 -1.000631145 -0.199476074 42.840000000
382 128 5 -0.173429924 -0.533762423 43.180000000
383 128 2 -0.000000000 -0.000000000 43.180000000
384 128 7 -0.692278507 -0.749535764 43.180000000
385 129 5 0.173429924 -0.533762423 43.520000000
386 129 2 0.000000000 -0.000000000 43.520000000
387 129 7 -0.119499009 -1.013298268 43.520000000
388 130 1 0.454045436 -0.329883319 43.860000000
389 130 2 0.000000000 -0.000000000 43.860000000
390 130 7 0.498925049 -0.890015274 43.860000000
391 131 5 0.561231024 0.000000000 44.200000000
392 131 2 0.000000000 0.000000000 44.200000000
393 131 7 0.926776696 -0.426776696 44.200000000
394 132 5 0.454045436 0.329883319 44.540000000
395 132 2 0.000000000 0.000000000 44.540000000
396 132 7 1.000631145 0.199476074 44.540000000
397 133 1 0.173429924 0.533762423 44.880000000
398 133 2 0.000000000 0.000000000 44.880000000
399 133 7 0.692278507 0.749535764 44.880000000
400 134 5 -0.173429924 0.533762423 45.220000000
401 134 2 -0.000000000 0.000000000 45.220000000
402 134 7 0.119499009 1.013298268 45.220000000
403 135 5 -0.454045436 0.329883319 45.560000000
404 135 2 -0.000000000 0.000000000 45.560000000
405 135 7 -0.498925049 0.890015274 45.560000000
406 136 1 -0.561231024 -0.000000000 45.900000000
407 136 2 -0.000000000 -0.000000000 45.900000000
408 136 7 -0.926776696 0.426776696 45.900000000
409 137 5 -0.454045436 -0.329883319 46.240000000
410 137 2 -0.000000000 -0.000000000 46.240000000
411 137 7 -1.000631145 -0.199476074 46.240000000
412 138 5 -0.173429924 -0.533762423 46.580000000
413 138 2 -0.000000000 -0.000000000 46.580000000
414 138 7 -0.692278507 -0.749535764 46.580000000
415 139 1 0.173429924 -0.533762423 46.920000000
416 139 2 0.000000000 -0.000000000 46.920000000
417 139 7 -0.119499009 -1.013298268 46.920000000
418 140 5 0.454045436 -0.329883319 47.260000000
419 140 2 0.000000000 -0.000000000 47.260000000
420 140 7 0.498925049 -0.890015274 47.260000000
421 141 5 0.561231024 0.000000000 47.600000000
422 141 2 0.000000000 0.000000000 47.600000000
423 141 7 0.926776696 -0.426776696 47.600000000
424 142 1 0.454045436 0.329883319 47.940000000
425 142 2 0.000000000 0.000000000 47.940000000
426 142 7 1.000631145 0.199476074 47.940000000
427 143 5 0.173429924 0.533762423 48.280000000
428 143 2 0.000000000 0.000000000 48.280000000
429 143 7 0.692278507 0.749535764 48.280000000
430 144 5 -0.173429924 0.533762423 48.620000000
431 144 2 -0.000000000 0.000000000 48.620000000
432 144 7 0.119499009 1.013298268 48.620000000
433 145 1 -0.454045436 0.329883319 48.960000000
434 145 2 -0.000000000 0.000000000 48.960000000
435 145 7 -0.498925049 0.890015274 48.960000000
436 146 5 -0.561231024 0.000000000 49.300000000
437 146 2 -0.000000000 0.000000000 49.300000000
438 146 7 -0.926776696 0.426776696 49.300000000
439 147 5 -0.454045436 -0.329883319 49.640000000
440 147 2 -0.000000000 -0.000000000 49.640000000
441 147 7 -1.000631145 -0.199476074 49.640000000
442 148 1 -0.173429924 -0.533762423 49.980000000
443 148 2 -0.000000000 -0.000000000 49.980000000
444 148 7 -0.692278507 -0.749535764 49.980000000
445 149 5 0.173429924 -0.533762423 50.320000000
446 149 2 0.000000000 -0.000000000 50.320000000
447 149 7 -0.119499009 -1.013298268 50.320000000
448 150 5 0.454045436 -0.329883319 50.660000000
449 150 2 0.000000000 -0.000000000 50.660000000
450 150 7 0.498925049 -0.890015274 50.660000000
451 151 1 0.561231024 -0.000000000 51.000000000
452 151 2 0.000000000 -0.000000000 51.000000000
453 151 7 0.926776696 -0.426776696 51.000000000
454 152 5 0.454045436 0.329883319 51.340000000
455 152 2 0.000000000 0.000000000 51.340000000
456 152 7 1.000631145 0.199476074 51.340000000
457 153 5 0.173429924 0.533762423 51.680000000
458 153 2 0.000000000 0.000000000 51.680000000
459 153 7 0.692278507 0.749535764 51.680000000
460 154 1 -0.173429924 0.533762423 52.020000000
461 154 2 -0.000000000 0.000000000 52.020000000
462 154 7 0.119499009 1.013298268 52.020000000
463 155 5 -0.454045436 0.329883319 52.360000000
464 155 2 -0.000000000 0.000000000 52.360000000
465 155 7 -0.498925049 0.890015274 52.360000000
466 156 5 -0.561231024 -0.000000000 52.700000000
467 156 2 -0.000000000 -0.000000000 52.700000000
468 156 7 -0.926776696 0.426776696 52.700000000
469 157 1 -0.454045436 -0.329883319 53.040000000
470 157 2 -0.000000000 -0.000000000 53.040000000
471 157 7 -1.000631145 -0.199476074 53.040000000
472 158 5 -0.173429924 -0.533762423 53.380000000
473 158 2 -0.000000000 -0.000000000 53.380000000
474 158 7 -0.692278507 -0.749535764 53.380000000
475 159 5 0.173429924 -0.533762423 53.720000000
476 159 2 0.000000000 -0.000000000 53.720000000
477 159 7 -0.119499009 -1.013298268 53.720000000
478 160 1 0.454045436 -0.329883319 54.060000000
479 160 2 0.000000000 -0.000000000 54.060000000
480 160 7 0.498925049 -0.890015274 54.060000000
481 161 5 0.561231024 0.000000000 54.400000000
482 161 2 0.000000000 0.000000000 54.400000000
483 161 7 0.926776696 -0.426776696 54.400000000
484 162 5 0.454045436 0.329883319 54.740000000
485 162 2 0.000000000 0.000000000 54.740000000
486 162 7 1.000631145 0.199476074 54.740000000
487 163 1 0.173429924 0.533762423 55.080000000
488 163 2 0.000000000 0.000000000 55.080000000
489 163 7 0.692278507 0.749535764 55.080000000
490 164 5 -0.173429924 0.533762423 55.420000000
491 164 2 -0.000000000 0.000000000 55.420000000
492 164 7 0.119499009 1.013298268 55.420000000
493 165 5 -0.454045436 0.329883319 55.760000000
494 165 2 -0.000000000 0.000000000 55.760000000
495 165 7 -0.498925049 0.890015274 55.760000000
496 166 1 -0.561231024 -0.000000000 56.100000000
497 166 2 -0.000000000 -0.000000000 56.100000000
498 166 7 -0.926776696 0.426776696 56.100000000
499 167 5 -0.454045436 -0.329883319 56.440000000
500 167 2 -0.000000000 -0.000000000 56.440000000
501 167 7 -1.000631145 -0.199476074 56.440000000
502 168 5 -0.173429924 -0.533762423 56.780000000
503 168 2 -0.000000000 -0.000000000 56.780000000
504 168 7 -0.692278507 -0.749535764 56.780000000
505 169 1 0.173429924 -0.533762423 57.120000000
506 169 2 0.000000000 -0.000000000 57.120000000
507 169 7 -0.119499009 -1.013298268 57.120000000
508 170 5 0.454045436 -0.329883319 57.460000000
509 170 2 0.000000000 -0.000000000 57.460000000
510 170 7 0.498925049 -0.890015274 57.460000000
511 171 5 0.561231024 0.000000000 57.800000000
512 171 2 0.000000000 0.000000000 57.800000000
513 171 7 0.926776696 -0.426776696 57.800000000
514 172 1 0.454045436 0.329883319 58.140000000
515 172 2 0.000000000 0.000000000 58.140000000
516 172 7 1.000631145 0.199476074 58.140000000
517 173 5 0.173429924 0.533762423 58.480000000
518 173 2 0.000000000 0.000000000 58.480000000
519 173 7 0.692278507 0.749535764 58.480000000
520 174 5 -0.173429924 0.533762423 58.820000000
521 174 2 -0.000000000 0.000000000 58.820000000
522 174 7 0.119499009 1.013298268 58.820000000
523 175 1 -0.454045436 0.329883319 59.160000000
524 175 2 -0.000000000 0.000000000 59.160000000
525 175 7 -0.498925049 0.890015274 59.160000000
526 176 5 -0.561231024 0.000000000 59.500000000
527 176 2 -0.000000000 0.000000000 59.500000000
528 176 7 -0.926776696 0.426776696 59.500000000
529 177 5 -0.454045436 -0.329883319 59.840000000
530 177 2 -0.000000000 -0.000000000 59.840000000
531 177 7 -1.000631145 -0.199476074 59.840000000
532 178 1 -0.173429924 -0.533762423 60.180000000
533 178 2 -0.000000000 -0.000000000 60.180000000
534 178 7 -0.692278507 -0.749535764 60.180000000
535 179 5 0.173429924 -0.533762423 60.520000000
536 179 2 0.000000000 -0.000000000 60.520000000
537 179 7 -0.119499009 -1.013298268 60.520000000
538 180 5 0.454045436 -0.329883319 60.860000000
539 180 2 0.000000000 -0.000000000 60.860000000
540 180 7 0.498925049 -0.890015274 60.860000000
541 181 1 0.561231024 -0.000000000 61.200000000
542 181 2 0.000000000 -0.000000000 61.200000000
543 181 7 0.926776696 -0.426776696 61.200000000
544 182 5 0.454045436 0.329883319 61.540000000
545 182 2 0.000000000 0.000000000 61.540000000
546 182 7 1.000631145 0.199476074 61.540000000
547 183 5 0.173429924 0.533762423 61.880000000
548 183 2 0.000000000 0.000000000 61.880000000
549 183 7 0.692278507 0.749535764 61.880000000
550 184 1 -0.173429924 0.533762423 62.220000000
551 184 2 -0.000000000 0.000000000 62.220000000
552 184 7 0.119499009 1.013298268 62.220000000
553 185 5 -0.454045436 0.329883319 62.560000000
554 185 2 -0.000000000 0.000000000 62.560000000
555 185 7 -0.498925049 0.890015274 62.560000000
556 186 5 -0.561231024 0.000000000 62.900000000
557 186 2 -0.000000000 0.000000000 62.900000000
558 186 7 -0.926776696 0.426776696 62.900000000
559 187 1 -0.454045436 -0.329883319 63.240000000
560 187 2 -0.000000000 -0.000000000 63.240000000
561 187 7 -1.000631145 -0.199476074 63.240000000
562 188 5 -0.173429924 -0.533762423 63.580000000
563 188 2 -0.000000000 -0.000000000 63.580000000
564 188 7 -0.692278507 -0.749535764 63.580000000
565 189 5 0.173429924 -0.533762423 63.920000000
566 189 2 0.000000000 -0.000000000 63.920000000
567 189 7 -0.119499009 -1.013298268 63.920000000
568 190 1 0.454045436 -0.329883319 64.260000000
569 190 2 0.000000000 -0.000000000 64.260000000
570 190 7 0.498925049 -0.890015274 64.260000000
571 191 5 0.561231024 -0.000000000 64.600000000
572 191 2 0.000000000 -0.000000000 64.600000000
573 191 7 0.926776696 -0.426776696 64.600000000
574 192 5 0.454045436 0.329883319 64.940000000
575 192 2 0.000000000 0.000000000 64.940000000
576 192 7 1.000631145 0.199476074 64.940000000
577 193 1 0.173429924 0.533762423 65.280000000
578 193 2 0.000000000 0.000000000 65.280000000
579 193 7 0.692278507 0.749535764 65.280000000
580 194 5 -0.173429924 0.533762423 65.620000000
581 194 2 -0.000000000 0.000000000 65.620000000
582 194 7 0.119499009 1.013298268 65.620000000
583 195 5 -0.454045436 0.329883319 65.960000000
584 195 2 -0.000000000 0.000000000 65.960000000
585 195 7 -0.498925049 0.890015274 65.960000000
586 196 1 -0.561231024 0.000000000 66.300000000
587 196 2 -0.000000000 0.000000000 66.300000000
588 196 7 -0.926776696 0.426776696 66.300000000
589 197 5 -0.454045436 -0.329883319 66.640000000
590 197 2 -0.000000000 -0.000000000 66.640000000
591 197 7 -1.000631145 -0.199476074 66.640000000
592 198 5 -0.173429924 -0.533762423 66.980000000
593 198 2 -0.000000000 -0.000000000 66.980000000
594 198 7 -0.692278507 -0.749535764 66.980000000
595 199 1 0.173429924 -0.533762423 67.320000000
596 199 2 0.000000000 -0.000000000 67.320000000
597 199 7 -0.119499009 -1.013298268 67.320000000
598 200 5 0.454045436 -0.329883319 67.660000000
599 200 2 0.000000000 -0.000000000 67.660000000
600 200 7 0.498925049 -0.890015274 67.660000000
601 201 5 0.561231024 -0.000000000 68.000000000
602 201 2 0.000000000 -0.000000000 68.000000000
603 201 7 0.926776696 -0.426776696 68.000000000
604 202 1 0.454045436 0.329883319 68.340000000
605 202 2 0.000000000 0.000000000 68.340000000
606 202 7 1.000631145 0.199476074 68.340000000
607 203 5 0.173429924 0.533762423 68.680000000
608 203 2 0.000000000 0.000000000 68.680000000
609 203 7 0.692278507 0.749535764 68.680000000
610 204 5 -0.173429924 0.533762423 69.020000000
611 204 2 -0.000000000 0.000000000 69.020000000
612 204 7 0.119499009 1.013298268 69.020000000
613 205 1 -0.454045436 0.329883319 69.360000000
614 205 2 -0.000000000 0.000000000 69.360000000
615 205 7 -0.498925049 0.890015274 69.360000000
616 206 5 -0.561231024 0.000000000 69.700000000
617 206 2 -0.000000000 0.000000000 69.700000000
618 206 7 -0.926776696 0.426776696 69.700000000
619 207 5 -0.454045436 -0.329883319 70.040000000
620 207 2 -0.000000000 -0.000000000 70.040000000
621 207 7 -1.000631145 -0.199476074 70.040000000
622 208 1 -0.173429924 -0.533762423 70.380000000
623 208 2 -0.000000000 -0.000000000 70.380000000
624 208 7 -0.692278507 -0.749535764 70.380000000
625 209 5 0.173429924 -0.533762423 70.720000000
626 209 2 0.000000000 -0.000000000 70.720000000
627 209 7 -0.119499009 -1.013298268 70.720000000
628 210 5 0.454045436 -0.329883319 71.060000000
629 210 2 0.000000000 -0.000000000 71.060000000