LAMMPS data file initial configuration ring dsDNA molecule; timestep = 0
2000 atoms
2500 bonds
2000 angles
1000 dihedrals

6 atom types
4 bond types
4 angle types
2 dihedral types

-47.056340326 47.056340326 xlo xhi
-47.056340326 47.056340326 ylo yhi
-47.056340326 47.056340326 zlo zhi

Masses

1 1
2 1
3 1
4 1
5 1
6 1

Atoms

1 1 1 27.656340326 0.000000000 -0.000000000
2 1 2 27.156340326 0.000000000 -0.000000000
3 2 5 27.539575941 0.346090736 -0.352671151
4 2 2 27.135099383 0.341007666 -0.058778525
5 3 5 27.233147285 0.684587791 -0.570633910
6 3 2 27.078687584 0.680704977 -0.095105652
7 4 1 26.851837598 1.012770265 -0.570633910
8 4 2 27.006236313 1.018593719 -0.095105652
9 5 5 26.537369891 1.335038268 -0.352671151
10 5 2 26.941367477 1.355362521 -0.058778525
11 6 5 26.404134781 1.661207354 -0.000000000
12 6 2 26.903148146 1.692602614 -0.000000000
13 7 1 26.495439466 2.001503287 0.352671151
14 7 2 26.898798715 2.031973619 0.058778525
15 8 5 26.767036610 2.360643364 0.570633910
16 8 2 26.920947717 2.374217121 0.095105652
17 9 5 27.104207386 2.734028798 0.570633910
18 9 2 26.950479000 2.718522060 0.095105652
19 10 1 27.365794830 3.108262397 0.352671151
20 10 2 26.963870612 3.062611030 0.058778525
21 11 5 27.438261822 3.466258562 0.000000000
22 11 2 26.942204471 3.403591945 0.000000000
23 12 5 27.279041488 3.794985810 -0.352671151
24 12 2 26.878391426 3.739248467 -0.058778525
25 13 1 26.932604184 4.092408021 -0.570633910
26 13 2 26.779849088 4.069196891 -0.095105652
27 14 5 26.513169066 4.370211902 -0.570633910
28 14 2 26.665620429 4.395340726 -0.095105652
29 15 5 26.160790140 4.650525471 -0.352671151
30 15 2 26.559054780 4.721323786 -0.058778525
31 16 1 25.987725803 4.957423829 -0.000000000
32 16 2 26.478869428 5.051114487 -0.000000000
33 17 5 26.035660133 5.306479938 0.352671151
34 17 2 26.432019828 5.387264322 0.058778525
35 18 5 26.260103466 5.696828238 0.570633910
36 18 2 26.411099695 5.729585138 0.095105652
37 19 1 26.547817946 6.109528119 0.570633910
38 19 2 26.397245263 6.074876381 0.095105652
39 20 5 26.760438787 6.513596375 0.352671151
40 20 2 26.367405495 6.417930521 0.058778525
41 21 5 26.787465538 6.877852155 0.000000000
42 21 2 26.303173957 6.753507211 0.000000000
43 22 1 26.588300256 7.184031692 -0.352671151
44 22 2 26.197795180 7.078519086 -0.058778525
45 23 5 26.207317825 7.435688532 -0.570633910
46 23 2 26.058676375 7.393515139 -0.095105652
47 24 5 25.756372020 7.658732687 -0.570633910
48 24 2 25.904471781 7.702770585 -0.095105652
49 25 1 25.371639101 7.892671109 -0.352671151
50 25 2 25.757889923 8.012826953 -0.058778525
51 26 5 25.161474864 8.175458770 -0.000000000
52 26 2 25.637003122 8.329967267 -0.000000000
53 27 5 25.165282887 8.527770232 0.352671151
54 27 2 25.548392199 8.657594649 0.058778525
55 28 1 25.339032802 8.943170726 0.570633910
56 28 2 25.484732853 8.994594174 0.095105652
57 29 5 25.572753557 9.388676532 0.570633910
58 29 2 25.427711199 9.335426272 0.095105652
59 30 5 25.733054639 9.816207047 0.352671151
60 30 2 25.355110642 9.672035413 0.058778525
61 31 1 25.714214920 10.180977911 0.000000000
62 31 2 25.249326678 9.996915635 0.000000000
63 32 5 25.478245644 10.459781102 -0.352671151
64 32 2 25.104044054 10.306157231 -0.058778525
65 33 5 25.068726409 10.661703793 -0.570633910
66 33 2 24.926542769 10.601233236 -0.095105652
67 34 1 24.593381601 10.826470683 -0.570633910
68 34 2 24.734794139 10.888723150 -0.095105652
69 35 5 24.182362157 11.010344610 -0.352671151
70 35 2 24.550507756 11.177963053 -0.058778525
71 36 5 23.938412436 11.264561841 -0.000000000
72 36 2 24.390825962 11.477451487 -0.000000000
73 37 1 23.898034097 11.614572494 0.352671151
74 37 2 24.261851164 11.791389536 0.058778525
75 38 5 24.018350455 12.048474071 0.570633910
76 38 2 24.156456550 12.117753087 0.095105652
77 39 5 24.194391568 12.519759908 0.570633910
78 39 2 24.057166940 12.448750914 0.095105652
79 40 1 24.299844846 12.964010270 0.352671151
80 40 2 23.942950548 12.773606529 0.058778525
81 41 5 24.235435773 13.323543564 0.000000000
82 41 2 23.797282433 13.082666727 0.000000000
83 42 5 23.966383880 13.570573516 -0.352671151
84 42 2 23.614387157 13.371261120 -0.058778525
85 43 1 23.534786201 13.719577616 -0.570633910
86 43 2 23.401302693 13.641763552 -0.095105652
87 44 5 23.042538862 13.823468768 -0.570633910
88 44 2 23.175034017 13.902954047 -0.095105652
89 45 5 22.611714916 13.954378398 -0.352671151
90 45 2 22.955949415 14.166815999 -0.058778525
91 46 1 22.337826944 14.176016044 -0.000000000
92 46 2 22.759990906 14.443929441 -0.000000000
93 47 5 22.253899033 14.518206010 0.352671151
94 47 2 22.592686242 14.739227166 0.058778525
95 48 5 22.318884373 14.963765781 0.570633910
96 48 2 22.447218497 15.049807796 0.095105652
97 49 1 22.434469572 15.453399191 0.570633910
98 49 2 22.307226787 15.365751318 0.095105652
99 50 5 22.483411985 15.907363306 0.352671151
100 50 2 22.153195821 15.673730240 0.058778525
101 51 5 22.374449326 16.255988976 0.000000000
102 51 2 21.969940828 15.962096350 0.000000000
103 52 1 22.076557924 16.467349879 -0.352671151
104 52 2 21.752317268 16.225492233 -0.058778525
105 53 5 21.629688357 16.561085505 -0.570633910
106 53 2 21.507010094 16.467155108 -0.095105652
107 54 5 21.128301521 16.602462493 -0.570633910
108 54 2 21.249789765 16.697927053 -0.095105652
109 55 1 20.684467423 16.678343303 -0.352671151
110 55 2 20.999362039 16.932249793 -0.058778525
111 56 5 20.384960576 16.863906005 -0.000000000
112 56 2 20.770217198 17.182617999 -0.000000000
113 57 5 20.258806687 17.192878744 0.352671151
114 57 2 20.567221162 17.454618379 0.058778525
115 58 1 20.267436151 17.643069967 0.570633910
116 58 2 20.383974399 17.744518045 0.095105652
117 59 5 20.320742588 18.143329137 0.570633910
118 59 2 20.205488343 18.040424645 0.095105652
119 60 5 20.312402285 18.599847721 0.352671151
120 60 2 20.014071962 18.326669861 0.058778525
121 61 1 20.160604447 18.932067730 0.000000000
122 61 2 19.796120133 18.589794178 0.000000000
123 62 5 19.838571462 19.104426298 -0.352671151
124 62 2 19.547200341 18.823837641 -0.058778525
125 63 5 19.383477406 19.141415182 -0.570633910
126 63 2 19.273539098 19.032849791 -0.095105652
127 64 1 18.880858244 19.119625467 -0.570633910
128 64 2 18.989423634 19.229563775 -0.095105652
129 65 5 18.431013522 19.139280772 -0.352671151
130 65 2 18.711602179 19.430651893 -0.058778525
131 66 5 18.110611203 19.285842094 0.000000000
132 66 2 18.452884756 19.650326407 0.000000000
133 67 1 17.944220858 19.596409511 0.352671151
134 67 2 18.217398718 19.894739833 0.058778525
135 68 5 17.896358355 20.044132399 0.570633910
136 68 2 17.999262848 20.159386644 0.095105652
137 69 5 17.886545355 20.547127945 0.570633910
138 69 2 17.785097276 20.430589698 0.095105652
139 70 1 17.821053867 20.999001426 0.352671151
140 70 2 17.559314233 20.690586952 0.058778525
141 71 5 17.628814792 21.309576468 0.000000000
142 71 2 17.310102797 20.924319846 0.000000000
143 72 5 17.287718878 21.440214501 -0.352671151
144 72 2 17.033812388 21.125319885 -0.058778525
145 73 1 16.831577438 21.419873307 -0.570633910
146 73 2 16.736112877 21.298385063 -0.095105652
147 74 5 16.335652553 21.335260525 -0.570633910
148 74 2 16.429582949 21.457938788 -0.095105652
149 75 5 15.886891529 21.298380349 -0.352671151
150 75 2 16.128749175 21.622621005 -0.058778525
151 76 1 15.550646673 21.403628932 -0.000000000
152 76 2 15.844539299 21.808137430 -0.000000000
153 77 5 15.346643947 21.690893192 0.352671151
154 77 2 15.580277013 22.021109356 0.058778525
155 78 5 15.243044296 22.129086890 0.570633910
156 78 2 15.330692169 22.256329674 0.095105652
157 79 1 15.170266616 22.626886271 0.570633910
158 79 2 15.084224602 22.498552147 0.095105652
159 80 5 15.048656785 23.066988334 0.352671151
160 80 2 14.827635628 22.728201125 0.058778525
161 81 5 14.819008198 23.351020454 0.000000000
162 81 2 14.551094800 22.928856491 0.000000000
163 82 1 14.464228639 23.437877713 -0.352671151
164 82 2 14.251791039 23.093643214 -0.058778525
165 83 5 14.014233438 23.360527234 -0.570633910
166 83 2 13.934748159 23.228032079 -0.095105652
167 84 5 13.532823862 23.214425780 -0.570633910
168 84 2 13.610637927 23.347909289 -0.095105652
169 85 1 13.092223765 23.121591745 -0.352671151
170 85 2 13.291536161 23.473588468 -0.058778525
171 86 5 12.745439155 23.183867757 0.000000000
172 86 2 12.986315992 23.622021097 0.000000000
173 87 5 12.507041293 23.443298531 0.352671151
174 87 2 12.697445033 23.800192829 0.058778525
175 88 1 12.349338323 23.865052461 0.570633910
176 88 2 12.420347317 24.002277089 0.095105652
177 89 5 12.214743711 24.349805083 0.570633910
178 89 2 12.145464694 24.211698988 0.095105652
179 90 5 12.038933394 24.771195057 0.352671151
180 90 2 11.862116353 24.407377990 0.058778525
181 91 1 11.775496991 25.024204899 0.000000000
182 91 2 11.562607345 24.571791373 0.000000000
183 92 5 11.412628874 25.065911593 -0.352671151
184 92 2 11.245010431 24.697765995 -0.058778525
185 93 5 10.975876606 24.932771692 -0.570633910
186 93 2 10.913624138 24.791359154 -0.095105652
187 94 1 10.516574456 24.727485673 -0.570633910
188 94 2 10.577045013 24.869669313 -0.095105652
189 95 5 10.091083812 24.580161827 -0.352671151
190 95 2 10.244707683 24.954363417 -0.058778525
191 96 5 9.739228448 24.598483137 -0.000000000
192 96 2 9.923290724 25.063371380 -0.000000000
193 97 1 9.470195126 24.825989048 0.352671151
194 97 2 9.614366760 25.203933044 0.058778525
195 98 5 9.260875908 25.224651899 0.570633910
196 98 2 9.314126168 25.369694256 0.095105652
197 99 5 9.066587001 25.688712924 0.570633910
198 99 2 9.015163553 25.543012873 0.095105652
199 100 1 8.839348833 26.084745236 0.352671151
200 100 2 8.709524416 25.701635924 0.058778525
201 101 5 8.546279163 26.302742684 0.000000000
202 101 2 8.391770666 25.827214425 0.000000000
203 102 5 8.181045135 26.298641074 -0.352671151
204 102 2 8.060889291 25.912390252 -0.058778525
205 103 1 7.764423642 26.111811447 -0.570633910
206 103 2 7.720385744 25.963711685 -0.095105652
207 104 5 7.334472388 25.850578345 -0.570633910
208 104 2 7.376645781 25.999219795 -0.095105652
209 105 5 6.930801438 25.651088073 -0.352671151
210 105 2 7.036314044 26.041593149 -0.058778525
211 106 1 6.579424290 25.625165744 0.000000000
212 106 2 6.703769234 26.109457325 0.000000000
213 107 5 6.283998325 25.817158886 0.352671151
214 107 2 6.379664179 26.210192178 0.058778525
215 108 5 6.026363947 26.186443507 0.570633910
216 108 2 6.061015686 26.337016190 0.095105652
217 109 1 5.775444797 26.622494416 0.570633910
218 109 2 5.742687897 26.471498186 0.095105652
219 110 5 5.500362460 26.986923401 0.352671151
220 110 2 5.419578076 26.590563706 0.058778525
221 111 5 5.182281407 27.166470504 0.000000000
222 111 2 5.088590750 26.675326878 0.000000000
223 112 1 4.820441426 27.116625275 -0.352671151
224 112 2 4.749643111 26.718360635 -0.058778525
225 113 5 4.430521080 26.879052336 -0.570633910
226 113 2 4.405392256 26.726600973 -0.095105652
227 114 5 4.036701309 26.565991955 -0.570633910
228 114 2 4.059912439 26.718747050 -0.095105652
229 115 1 3.661216186 26.317481338 -0.352671151
230 115 2 3.716953530 26.718131400 -0.058778525
231 116 5 3.315858681 26.247724180 -0.000000000
232 116 2 3.378525298 26.743781531 -0.000000000
233 117 5 2.998699117 26.401176707 0.352671151
234 117 2 3.044350484 26.803100925 0.058778525
235 118 1 2.696812627 26.735259259 0.570633910
236 118 2 2.712319365 26.888987645 0.095105652
237 119 5 2.393220380 27.136423267 0.570633910
238 119 2 2.379646623 26.982512160 0.095105652
239 120 5 2.074632085 27.463501662 0.352671151
240 120 2 2.044161753 27.060142414 0.058778525
241 121 1 1.736555977 27.601766855 0.000000000
242 121 2 1.705160718 27.102753491 0.000000000
243 122 5 1.383816476 27.506964096 -0.352671151
244 122 2 1.363492223 27.102966511 -0.058778525
245 123 5 1.026746553 27.222394513 -0.570633910
246 123 2 1.020923100 27.067995799 -0.095105652
247 124 1 0.675269039 26.862444001 -0.570633910
248 124 2 0.679151852 27.016903703 -0.095105652
249 125 5 0.333891368 26.568832200 -0.352671151
250 125 2 0.338974438 26.973308759 -0.058778525
251 126 5 0.000000000 26.456340326 0.000000000
252 126 2 0.000000000 26.956340326 0.000000000
253 127 1 -0.333891368 26.568832200 0.352671151
254 127 2 -0.338974438 26.973308759 0.058778525
255 128 5 -0.675269039 26.862444001 0.570633910
256 128 2 -0.679151852 27.016903703 0.095105652
257 129 5 -1.026746553 27.222394513 0.570633910
258 129 2 -1.020923100 27.067995799 0.095105652
259 130 1 -1.383816476 27.506964096 0.352671151
260 130 2 -1.363492223 27.102966511 0.058778525
261 131 5 -1.736555977 27.601766855 -0.000000000
262 131 2 -1.705160718 27.102753491 -0.000000000
263 132 5 -2.074632085 27.463501662 -0.352671151
264 132 2 -2.044161753 27.060142414 -0.058778525
265 133 1 -2.393220380 27.136423267 -0.570633910
266 133 2 -2.379646623 26.982512160 -0.095105652
267 134 5 -2.696812627 26.735259259 -0.570633910
268 134 2 -2.712319365 26.888987645 -0.095105652
269 135 5 -2.998699117 26.401176707 -0.352671151
270 135 2 -3.044350484 26.803100925 -0.058778525
271 136 1 -3.315858681 26.247724180 -0.000000000
272 136 2 -3.378525298 26.743781531 -0.000000000
273 137 5 -3.661216186 26.317481338 0.352671151
274 137 2 -3.716953530 26.718131400 0.058778525
275 138 5 -4.036701309 26.565991955 0.570633910
276 138 2 -4.059912439 26.718747050 0.095105652
277 139 1 -4.430521080 26.879052336 0.570633910
278 139 2 -4.405392256 26.726600973 0.095105652
279 140 5 -4.820441426 27.116625275 0.352671151
280 140 2 -4.749643111 26.718360635 0.058778525
281 141 5 -5.182281407 27.166470504 0.000000000
282 141 2 -5.088590750 26.675326878 0.000000000
283 142 1 -5.500362460 26.986923401 -0.352671151
284 142 2 -5.419578076 26.590563706 -0.058778525
285 143 5 -5.775444797 26.622494416 -0.570633910
286 143 2 -5.742687897 26.471498186 -0.095105652
287 144 5 -6.026363947 26.186443507 -0.570633910
288 144 2 -6.061015686 26.337016190 -0.095105652
289 145 1 -6.283998325 25.817158886 -0.352671151
290 145 2 -6.379664179 26.210192178 -0.058778525
291 146 5 -6.579424290 25.625165744 0.000000000
292 146 2 -6.703769234 26.109457325 0.000000000
293 147 5 -6.930801438 25.651088073 0.352671151
294 147 2 -7.036314044 26.041593149 0.058778525
295 148 1 -7.334472388 25.850578345 0.570633910
296 148 2 -7.376645781 25.999219795 0.095105652
297 149 5 -7.764423642 26.111811447 0.570633910
298 149 2 -7.720385744 25.963711685 0.095105652
299 150 5 -8.181045135 26.298641074 0.352671151
300 150 2 -8.060889291 25.912390252 0.058778525
301 151 1 -8.546279163 26.302742684 0.000000000
302 151 2 -8.391770666 25.827214425 0.000000000
303 152 5 -8.839348833 26.084745236 -0.352671151
304 152 2 -8.709524416 25.701635924 -0.058778525
305 153 5 -9.066587001 25.688712924 -0.570633910
306 153 2 -9.015163553 25.543012873 -0.095105652
307 154 1 -9.260875908 25.224651899 -0.570633910
308 154 2 -9.314126168 25.369694256 -0.095105652
309 155 5 -9.470195126 24.825989048 -0.352671151
310 155 2 -9.614366760 25.203933044 -0.058778525
311 156 5 -9.739228448 24.598483137 -0.000000000
312 156 2 -9.923290724 25.063371380 -0.000000000
313 157 1 -10.091083812 24.580161827 0.352671151
314 157 2 -10.244707683 24.954363417 0.058778525
315 158 5 -10.516574456 24.727485673 0.570633910
316 158 2 -10.577045013 24.869669313 0.095105652
317 159 5 -10.975876606 24.932771692 0.570633910
318 159 2 -10.913624138 24.791359154 0.095105652
319 160 1 -11.412628874 25.065911593 0.352671151
320 160 2 -11.245010431 24.697765995 0.058778525
321 161 5 -11.775496991 25.024204899 0.000000000
322 161 2 -11.562607345 24.571791373 0.000000000
323 162 5 -12.038933394 24.771195057 -0.352671151
324 162 2 -11.862116353 24.407377990 -0.058778525
325 163 1 -12.214743711 24.349805083 -0.570633910
326 163 2 -12.145464694 24.211698988 -0.095105652
327 164 5 -12.349338323 23.865052461 -0.570633910
328 164 2 -12.420347317 24.002277089 -0.095105652
329 165 5 -12.507041293 23.443298531 -0.352671151
330 165 2 -12.697445033 23.800192829 -0.058778525
331 166 1 -12.745439155 23.183867757 -0.000000000
332 166 2 -12.986315992 23.622021097 -0.000000000
333 167 5 -13.092223765 23.121591745 0.352671151
334 167 2 -13.291536161 23.473588468 0.058778525
335 168 5 -13.532823862 23.214425780 0.570633910
336 168 2 -13.610637927 23.347909289 0.095105652
337 169 1 -14.014233438 23.360527234 0.570633910
338 169 2 -13.934748159 23.228032079 0.095105652
339 170 5 -14.464228639 23.437877713 0.352671151
340 170 2 -14.251791039 23.093643214 0.058778525
341 171 5 -14.819008198 23.351020454 -0.000000000
342 171 2 -14.551094800 22.928856491 -0.000000000
343 172 1 -15.048656785 23.066988334 -0.352671151
344 172 2 -14.827635628 22.728201125 -0.058778525
345 173 5 -15.170266616 22.626886271 -0.570633910
346 173 2 -15.084224602 22.498552147 -0.095105652
347 174 5 -15.243044296 22.129086890 -0.570633910
348 174 2 -15.330692169 22.256329674 -0.095105652
349 175 1 -15.346643947 21.690893192 -0.352671151
350 175 2 -15.580277013 22.021109356 -0.058778525
351 176 5 -15.550646673 21.403628932 -0.000000000
352 176 2 -15.844539299 21.808137430 -0.000000000
353 177 5 -15.886891529 21.298380349 0.352671151
354 177 2 -16.128749175 21.622621005 0.058778525
355 178 1 -16.335652553 21.335260525 0.570633910
356 178 2 -16.429582949 21.457938788 0.095105652
357 179 5 -16.831577438 21.419873307 0.570633910
358 179 2 -16.736112877 21.298385063 0.095105652
359 180 5 -17.287718878 21.440214501 0.352671151
360 180 2 -17.033812388 21.125319885 0.058778525
361 181 1 -17.628814792 21.309576468 0.000000000
362 181 2 -17.310102797 20.924319846 0.000000000
363 182 5 -17.821053867 20.999001426 -0.352671151
364 182 2 -17.559314233 20.690586952 -0.058778525
365 183 5 -17.886545355 20.547127945 -0.570633910
366 183 2 -17.785097276 20.430589698 -0.095105652
367 184 1 -17.896358355 20.044132399 -0.570633910
368 184 2 -17.999262848 20.159386644 -0.095105652
369 185 5 -17.944220858 19.596409511 -0.352671151
370 185 2 -18.217398718 19.894739833 -0.058778525
371 186 5 -18.110611203 19.285842094 -0.000000000
372 186 2 -18.452884756 19.650326407 -0.000000000
373 187 1 -18.431013523 19.139280772 0.352671151
374 187 2 -18.711602179 19.430651893 0.058778525
375 188 5 -18.880858244 19.119625467 0.570633910
376 188 2 -18.989423634 19.229563775 0.095105652
377 189 5 -19.383477406 19.141415182 0.570633910
378 189 2 -19.273539098 19.032849791 0.095105652
379 190 1 -19.838571462 19.104426298 0.352671151
380 190 2 -19.547200341 18.823837641 0.058778525
381 191 5 -20.160604447 18.932067730 0.000000000
382 191 2 -19.796120133 18.589794178 0.000000000
383 192 5 -20.312402285 18.599847721 -0.352671151
384 192 2 -20.014071962 18.326669861 -0.058778525
385 193 1 -20.320742588 18.143329137 -0.570633910
386 193 2 -20.205488343 18.040424645 -0.095105652
387 194 5 -20.267436151 17.643069967 -0.570633910
388 194 2 -20.383974399 17.744518045 -0.095105652
389 195 5 -20.258806687 17.192878744 -0.352671151
390 195 2 -20.567221162 17.454618379 -0.058778525
391 196 1 -20.384960576 16.863906005 -0.000000000
392 196 2 -20.770217198 17.182617999 -0.000000000
393 197 5 -20.684467423 16.678343303 0.352671151
394 197 2 -20.999362039 16.932249793 0.058778525
395 198 5 -21.128301521 16.602462493 0.570633910
396 198 2 -21.249789765 16.697927053 0.095105652
397 199 1 -21.629688357 16.561085505 0.570633910
398 199 2 -21.507010094 16.467155108 0.095105652
399 200 5 -22.076557924 16.467349879 0.352671151
400 200 2 -21.752317268 16.225492233 0.058778525
401 201 5 -22.374449326 16.255988976 0.000000000
402 201 2 -21.969940828 15.962096350 0.000000000
403 202 1 -22.483411985 15.907363306 -0.352671151
404 202 2 -22.153195821 15.673730240 -0.058778525
405 203 5 -22.434469572 15.453399191 -0.570633910
406 203 2 -22.307226787 15.365751318 -0.095105652
407 204 5 -22.318884373 14.963765781 -0.570633910
408 204 2 -22.447218497 15.049807796 -0.095105652
409 205 1 -22.253899033 14.518206010 -0.352671151
410 205 2 -22.592686242 14.739227166 -0.058778525
411 206 5 -22.337826944 14.176016044 -0.000000000
412 206 2 -22.759990906 14.443929441 -0.000000000
413 207 5 -22.611714916 13.954378398 0.352671151
414 207 2 -22.955949415 14.166815999 0.058778525
415 208 1 -23.042538862 13.823468768 0.570633910
416 208 2 -23.175034017 13.902954047 0.095105652
417 209 5 -23.534786201 13.719577616 0.570633910
418 209 2 -23.401302693 13.641763552 0.095105652
419 210 5 -23.966383880 13.570573516 0.352671151
420 210 2 -23.614387157 13.371261120 0.058778525
421 211 1 -24.235435773 13.323543564 -0.000000000
422 211 2 -23.797282433 13.082666727 -0.000000000
423 212 5 -24.299844846 12.964010270 -0.352671151
424 212 2 -23.942950548 12.773606529 -0.058778525
425 213 5 -24.194391568 12.519759908 -0.570633910
426 213 2 -24.057166940 12.448750914 -0.095105652
427 214 1 -24.018350455 12.048474071 -0.570633910
428 214 2 -24.156456550 12.117753087 -0.095105652
429 215 5 -23.898034097 11.614572494 -0.352671151
430 215 2 -24.261851164 11.791389536 -0.058778525
431 216 5 -23.938412436 11.264561841 -0.000000000
432 216 2 -24.390825962 11.477451487 -0.000000000
433 217 1 -24.182362157 11.010344610 0.352671151
434 217 2 -24.550507756 11.177963053 0.058778525
435 218 5 -24.593381601 10.826470683 0.570633910
436 218 2 -24.734794139 10.888723150 0.095105652
437 219 5 -25.068726409 10.661703793 0.570633910
438 219 2 -24.926542769 10.601233236 0.095105652
439 220 1 -25.478245644 10.459781102 0.352671151
440 220 2 -25.104044054 10.306157231 0.058778525
441 221 5 -25.714214920 10.180977911 0.000000000
442 221 2 -25.249326678 9.996915635 0.000000000
443 222 5 -25.733054639 9.816207047 -0.352671151
444 222 2 -25.355110642 9.672035413 -0.058778525
445 223 1 -25.572753557 9.388676532 -0.570633910
446 223 2 -25.427711199 9.335426272 -0.095105652
447 224 5 -25.339032802 8.943170726 -0.570633910
448 224 2 -25.484732853 8.994594174 -0.095105652
449 225 5 -25.165282887 8.527770232 -0.352671151
450 225 2 -25.548392199 8.657594649 -0.058778525
451 226 1 -25.161474864 8.175458770 -0.000000000
452 226 2 -25.637003122 8.329967267 -0.000000000
453 227 5 -25.371639101 7.892671109 0.352671151
454 227 2 -25.757889923 8.012826953 0.058778525
455 228 5 -25.756372020 7.658732687 0.570633910
456 228 2 -25.904471781 7.702770585 0.095105652
457 229 1 -26.207317825 7.435688532 0.570633910
458 229 2 -26.058676375 7.393515139 0.095105652
459 230 5 -26.588300256 7.184031692 0.352671151
460 230 2 -26.197795180 7.078519086 0.058778525
461 231 5 -26.787465538 6.877852155 0.000000000
462 231 2 -26.303173957 6.753507211 0.000000000
463 232 1 -26.760438787 6.513596375 -0.352671151
464 232 2 -26.367405495 6.417930521 -0.058778525
465 233 5 -26.547817946 6.109528119 -0.570633910
466 233 2 -26.397245263 6.074876381 -0.095105652
467 234 5 -26.260103466 5.696828238 -0.570633910
468 234 2 -26.411099695 5.729585138 -0.095105652
469 235 1 -26.035660133 5.306479938 -0.352671151
470 235 2 -26.432019828 5.387264322 -0.058778525
471 236 5 -25.987725803 4.957423829 0.000000000
472 236 2 -26.478869428 5.051114487 0.000000000
473 237 5 -26.160790140 4.650525471 0.352671151
474 237 2 -26.559054780 4.721323786 0.058778525
475 238 1 -26.513169066 4.370211902 0.570633910
476 238 2 -26.665620429 4.395340726 0.095105652
477 239 5 -26.932604184 4.092408021 0.570633910
478 239 2 -26.779849088 4.069196891 0.095105652
479 240 5 -27.279041488 3.794985810 0.352671151
480 240 2 -26.878391426 3.739248467 0.058778525
481 241 1 -27.438261822 3.466258562 0.000000000
482 241 2 -26.942204471 3.403591945 0.000000000
483 242 5 -27.365794830 3.108262397 -0.352671151
484 242 2 -26.963870612 3.062611030 -0.058778525
485 243 5 -27.104207386 2.734028798 -0.570633910
486 243 2 -26.950479000 2.718522060 -0.095105652
487 244 1 -26.767036610 2.360643364 -0.570633910
488 244 2 -26.920947717 2.374217121 -0.095105652
489 245 5 -26.495439466 2.001503287 -0.352671151
490 245 2 -26.898798715 2.031973619 -0.058778525
491 246 5 -26.404134781 1.661207354 -0.000000000
492 246 2 -26.903148146 1.692602614 -0.000000000
493 247 1 -26.537369891 1.335038268 0.352671151
494 247 2 -26.941367477 1.355362521 0.058778525
495 248 5 -26.851837598 1.012770265 0.570633910
496 248 2 -27.006236313 1.018593719 0.095105652
497 249 5 -27.233147285 0.684587791 0.570633910
498 249 2 -27.078687584 0.680704977 0.095105652
499 250 1 -27.539575941 0.346090736 0.352671151
500 250 2 -27.135099383 0.341007666 0.058778525
501 251 5 -27.656340326 0.000000000 -0.000000000
502 251 2 -27.156340326 0.000000000 -0.000000000
503 252 5 -27.539575941 -0.346090736 -0.352671151
504 252 2 -27.135099383 -0.341007666 -0.058778525
505 253 1 -27.233147285 -0.684587791 -0.570633910
506 253 2 -27.078687584 -0.680704977 -0.095105652
507 254 5 -26.851837598 -1.012770265 -0.570633910
508 254 2 -27.006236313 -1.018593719 -0.095105652
509 255 5 -26.537369891 -1.335038268 -0.352671151
510 255 2 -26.941367477 -1.355362521 -0.058778525
511 256 1 -26.404134781 -1.661207354 -0.000000000
512 256 2 -26.903148146 -1.692602614 -0.000000000
513 257 5 -26.495439466 -2.001503287 0.352671151
514 257 2 -26.898798715 -2.031973619 0.058778525
515 258 5 -26.767036610 -2.360643364 0.570633910
516 258 2 -26.920947717 -2.374217121 0.095105652
517 259 1 -27.104207386 -2.734028798 0.570633910
518 259 2 -26.950479000 -2.718522060 0.095105652
519 260 5 -27.365794830 -3.108262397 0.352671151
520 260 2 -26.963870612 -3.062611030 0.058778525
521 261 5 -27.438261822 -3.466258562 -0.000000000
522 261 2 -26.942204471 -3.403591945 -0.000000000
523 262 1 -27.279041488 -3.794985810 -0.352671151
524 262 2 -26.878391426 -3.739248467 -0.058778525
525 263 5 -26.932604184 -4.092408021 -0.570633910
526 263 2 -26.779849088 -4.069196891 -0.095105652
527 264 5 -26.513169066 -4.370211902 -0.570633910
528 264 2 -26.665620429 -4.395340726 -0.095105652
529 265 1 -26.160790140 -4.650525471 -0.352671151
530 265 2 -26.559054780 -4.721323786 -0.058778525
531 266 5 -25.987725803 -4.957423829 -0.000000000
532 266 2 -26.478869428 -5.051114487 -0.000000000
533 267 5 -26.035660133 -5.306479938 0.352671151
534 267 2 -26.432019828 -5.387264322 0.058778525
535 268 1 -26.260103466 -5.696828238 0.570633910
536 268 2 -26.411099695 -5.729585138 0.095105652
537 269 5 -26.547817946 -6.109528119 0.570633910
538 269 2 -26.397245263 -6.074876381 0.095105652
539 270 5 -26.760438787 -6.513596375 0.352671151
540 270 2 -26.367405495 -6.417930521 0.058778525
541 271 1 -26.787465538 -6.877852155 0.000000000
542 271 2 -26.303173957 -6.753507211 0.000000000
543 272 5 -26.588300256 -7.184031692 -0.352671151
544 272 2 -26.197795180 -7.078519086 -0.058778525
545 273 5 -26.207317825 -7.435688532 -0.570633910
546 273 2 -26.058676375 -7.393515139 -0.095105652
547 274 1 -25.756372020 -7.658732687 -0.570633910
548 274 2 -25.904471781 -7.702770585 -0.095105652
549 275 5 -25.371639101 -7.892671109 -0.352671151
550 275 2 -25.757889923 -8.012826953 -0.058778525
551 276 5 -25.161474864 -8.175458770 0.000000000
552 276 2 -25.637003122 -8.329967267 0.000000000
553 277 1 -25.165282887 -8.527770232 0.352671151
554 277 2 -25.548392199 -8.657594649 0.058778525
555 278 5 -25.339032802 -8.943170726 0.570633910
556 278 2 -25.484732853 -8.994594174 0.095105652
557 279 5 -25.572753557 -9.388676532 0.570633910
558 279 2 -25.427711199 -9.335426272 0.095105652
559 280 1 -25.733054639 -9.816207047 0.352671151
560 280 2 -25.355110642 -9.672035413 0.058778525
561 281 5 -25.714214920 -10.180977911 0.000000000
562 281 2 -25.249326678 -9.996915635 0.000000000
563 282 5 -25.478245644 -10.459781102 -0.352671151
564 282 2 -25.104044054 -10.306157231 -0.058778525
565 283 1 -25.068726409 -10.661703793 -0.570633910
566 283 2 -24.926542769 -10.601233236 -0.095105652
567 284 5 -24.593381601 -10.826470683 -0.570633910
568 284 2 -24.734794139 -10.888723150 -0.095105652
569 285 5 -24.182362157 -11.010344610 -0.352671151
570 285 2 -24.550507756 -11.177963053 -0.058778525
571 286 1 -23.938412436 -11.264561841 -0.000000000
572 286 2 -24.390825962 -11.477451487 -0.000000000
573 287 5 -23.898034097 -11.614572494 0.352671151
574 287 2 -24.261851164 -11.791389536 0.058778525
575 288 5 -24.018350455 -12.048474071 0.570633910
576 288 2 -24.156456550 -12.117753087 0.095105652
577 289 1 -24.194391568 -12.519759908 0.570633910
578 289 2 -24.057166940 -12.448750914 0.095105652
579 290 5 -24.299844846 -12.964010270 0.352671151
580 290 2 -23.942950548 -12.773606529 0.058778525
581 291 5 -24.235435773 -13.323543564 -0.000000000
582 291 2 -23.797282433 -13.082666727 -0.000000000
583 292 1 -23.966383880 -13.570573516 -0.352671151
584 292 2 -23.614387157 -13.371261120 -0.058778525
585 293 5 -23.534786201 -13.719577616 -0.570633910
586 293 2 -23.401302693 -13.641763552 -0.095105652
587 294 5 -23.042538862 -13.823468768 -0.570633910
588 294 2 -23.175034017 -13.902954047 -0.095105652
589 295 1 -22.611714916 -13.954378398 -0.352671151
590 295 2 -22.955949415 -14.166815999 -0.058778525
591 296 5 -22.337826944 -14.176016044 -0.000000000
592 296 2 -22.759990906 -14.443929441 -0.000000000
593 297 5 -22.253899033 -14.518206010 0.352671151
594 297 2 -22.592686242 -14.739227166 0.058778525
595 298 1 -22.318884373 -14.963765781 0.570633910
596 298 2 -22.447218497 -15.049807796 0.095105652
597 299 5 -22.434469572 -15.453399191 0.570633910
598 299 2 -22.307226787 -15.365751318 0.095105652
599 300 5 -22.483411985 -15.907363306 0.352671151
600 300 2 -22.153195821 -15.673730240 0.058778525
601 301 1 -22.374449326 -16.255988976 0.000000000
602 301 2 -21.969940828 -15.962096350 0.000000000
603 302 5 -22.076557924 -16.467349879 -0.352671151
604 302 2 -21.752317268 -16.225492233 -0.058778525
605 303 5 -21.629688357 -16.561085505 -0.570633910
606 303 2 -21.507010094 -16.467155108 -0.095105652
607 304 1 -21.128301521 -16.602462493 -0.570633910
608 304 2 -21.249789765 -16.697927053 -0.095105652
609 305 5 -20.684467423 -16.678343303 -0.352671151
610 305 2 -20.999362039 -16.932249793 -0.058778525
611 306 5 -20.384960576 -16.863906005 -0.000000000
612 306 2 -20.770217198 -17.182617999 -0.000000000
613 307 1 -20.258806687 -17.192878744 0.352671151
614 307 2 -20.567221162 -17.454618379 0.058778525