LAMMPS data file initial configuration ring dsDNA molecule; timestep = 0
4000 atoms
5000 bonds
4000 angles
2000 dihedrals

6 atom types
3 bond types
2 angle types
1 dihedral types

-74.112680651 74.112680651 xlo xhi
-74.112680651 74.112680651 ylo yhi
-74.112680651 74.112680651 zlo zhi

Masses

1 1
2 1
3 1
4 1
5 1
6 1

Atoms

1 1 1 54.712680651 0.000000000 -0.000000000
2 1 2 54.212680651 0.000000000 -0.000000000
3 2 5 54.597013128 0.343047665 -0.352671151
4 2 2 54.192512616 0.340506080 -0.058778525
5 3 5 54.293803699 0.682311975 -0.570633910
6 3 2 54.139307401 0.680370415 -0.095105652
7 4 1 53.917690403 1.016444906 -0.570633910
8 4 2 54.072171453 1.019357150 -0.095105652
9 5 5 53.610334388 1.347658425 -0.352671151
10 5 2 54.014715137 1.357823762 -0.058778525
11 6 5 53.486275374 1.680873920 -0.000000000
12 6 2 53.986028654 1.696579299 -0.000000000
13 7 1 53.589166812 2.021221620 0.352671151
14 7 2 53.993387895 2.036467619 0.058778525
15 8 5 53.875119261 2.371080608 0.570633910
16 8 2 54.029478339 2.377874056 0.095105652
17 9 5 54.229510003 2.728170553 0.570633910
18 9 2 54.075196657 2.720407379 0.095105652
19 10 1 54.510818536 3.085804080 0.352671151
20 10 2 54.106956625 3.062941853 0.058778525
21 11 5 54.604717674 3.435437643 0.000000000
22 11 2 54.105704310 3.404042383 0.000000000
23 12 5 54.467738253 3.770545558 -0.352671151
24 12 2 54.064195518 3.742610191 -0.058778525
25 13 1 54.143824556 4.090101730 -0.570633910
26 13 2 53.989755033 4.078463098 -0.095105652
27 14 5 53.747473054 4.399958977 -0.570633910
28 14 2 53.901466409 4.412565419 -0.095105652
29 15 5 53.419926466 4.711219877 -0.352671151
30 15 2 53.822870976 4.746756433 -0.058778525
31 16 1 53.275189480 5.035988117 -0.000000000
32 16 2 53.772970463 5.083042274 -0.000000000
33 17 5 53.356507277 5.382124826 0.352671151
34 17 2 53.758973417 5.422721992 0.058778525
35 18 5 53.619927637 5.749248550 0.570633910
36 18 2 53.773555558 5.765720879 0.095105652
37 19 1 53.951197206 6.127886239 0.570633910
38 19 2 53.797675816 6.110448968 0.095105652
39 20 5 54.209494646 6.502477567 0.352671151
40 20 2 53.807865195 6.454301753 0.058778525
41 21 5 54.281254822 6.857317183 0.000000000
42 21 2 53.785197472 6.794650566 0.000000000
43 22 1 54.123504099 7.183162830 -0.352671151
44 22 2 53.722511739 7.129943929 -0.058778525
45 23 5 53.780164474 7.481749722 -0.570633910
46 23 2 53.627129767 7.460459951 -0.095105652
47 24 5 53.365138983 7.766108419 -0.570633910
48 24 2 53.518036902 7.788359309 -0.095105652
49 25 1 53.018694500 8.056188297 -0.352671151
50 25 2 53.418612532 8.116955824 -0.058778525
51 26 5 52.853850753 8.371227571 -0.000000000
52 26 2 53.347694924 8.449444803 -0.000000000
53 27 5 52.913273984 8.721787244 0.352671151
54 27 2 53.312396832 8.787575359 0.058778525
55 28 1 53.153122655 9.104726835 0.570633910
56 28 2 53.305413120 9.130813037 0.095105652
57 29 5 53.459963682 9.503417957 0.570633910
58 29 2 53.307840126 9.476375407 0.095105652
59 30 5 53.694230646 9.893488745 0.352671151
60 30 2 53.296418704 9.820189474 0.058778525
61 31 1 53.743568657 10.252134025 0.000000000
62 31 2 53.252425032 10.158443368 0.000000000
63 32 5 53.565669201 10.567431440 -0.352671151
64 32 2 53.168809751 10.489139036 -0.058778525
65 33 5 53.204258652 10.843870665 -0.570633910
66 33 2 53.052862720 10.813013776 -0.095105652
67 34 1 52.772197089 11.101608580 -0.570633910
68 34 2 52.923396154 11.133416102 -0.095105652
69 35 5 52.408221969 11.369362622 -0.352671151
70 35 2 52.803535229 11.455121300 -0.058778525
71 36 5 52.223922024 11.673429613 -0.000000000
72 36 2 52.711880405 11.782501234 -0.000000000
73 37 1 52.261216172 12.027028752 0.352671151
74 37 2 52.655420573 12.117748181 0.058778525
75 38 5 52.476546581 12.424272922 0.570633910
76 38 2 52.626898569 12.459870046 0.095105652
77 39 5 52.757748104 12.841444026 0.570633910
78 39 2 52.607622746 12.804902921 0.095105652
79 40 1 52.967060049 13.245454843 0.352671151
80 40 2 52.574635597 13.147321392 0.058778525
81 41 5 52.993781179 13.606490378 0.000000000
82 41 2 52.509489598 13.482145434 0.000000000
83 42 5 52.796435079 13.909995226 -0.352671151
84 42 2 52.405274760 13.806938303 -0.058778525
85 43 1 52.418379928 14.163195805 -0.570633910
86 43 2 52.269220262 14.122893576 -0.095105652
87 44 5 51.970987443 14.393295763 -0.570633910
88 44 2 52.119890940 14.434534388 -0.095105652
89 45 5 51.590918129 14.637667267 -0.352671151
90 45 2 51.980066497 14.748078644 -0.058778525
91 46 1 51.387889333 14.929561962 -0.000000000
92 46 2 51.868036176 15.069057515 -0.000000000
93 47 5 51.402907216 15.284805073 0.352671151
94 47 2 51.790637425 15.400097787 0.058778525
95 48 5 51.592869552 15.694786081 0.570633910
96 48 2 51.740689693 15.739753641 0.095105652
97 49 1 51.847321798 16.128790782 0.570633910
98 49 2 51.699787112 16.082895334 0.095105652
99 50 5 52.030852664 16.545147182 0.352671151
100 50 2 51.645364423 16.422566840 0.058778525
101 51 5 52.034851457 16.907148129 0.000000000
102 51 2 51.559323199 16.752639632 0.000000000
103 52 1 51.818837548 17.197662616 -0.352671151
104 52 2 51.434920092 17.070247892 -0.058778525
105 53 5 51.425629806 17.426625282 -0.570633910
106 53 2 51.279295071 17.377036768 -0.095105652
107 54 5 50.964672052 17.628179184 -0.570633910
108 54 2 51.110692327 17.678686162 -0.095105652
109 55 1 50.570008504 17.848203727 -0.352671151
110 55 2 50.951456189 17.982832061 -0.058778525
111 56 5 50.349052120 18.126774151 -0.000000000
112 56 2 50.819492504 18.296143111 -0.000000000
113 57 5 50.341734469 18.482259251 0.352671151
114 57 2 50.721460291 18.621670242 0.058778525
115 58 1 50.505579037 18.903359089 0.570633910
116 58 2 50.650283952 18.957519620 0.095105652
117 59 5 50.732277799 19.352484570 0.570633910
118 59 2 50.587916039 19.297415906 0.095105652
119 60 5 50.889303275 19.779543383 0.352671151
120 60 2 50.512272590 19.632999919 0.058778525
121 61 1 50.870563949 20.141081091 0.000000000
122 61 2 50.405675706 19.957018815 0.000000000
123 62 5 50.636734738 20.417458688 -0.352671151
124 62 2 50.261575293 20.266189012 -0.058778525
125 63 5 50.229926218 20.621279831 -0.570633910
126 63 2 50.086993929 20.562600733 -0.095105652
127 64 1 49.757222384 20.793492235 -0.570633910
128 64 2 49.899783163 20.853068238 -0.095105652
129 65 5 49.349522160 20.988301480 -0.352671151
130 65 2 49.721763761 21.146615454 -0.058778525
131 66 5 49.111510200 21.252448243 0.000000000
132 66 2 49.570387513 21.451022188 0.000000000
133 67 1 49.081885895 21.606772396 0.352671151
134 67 2 49.452108727 21.769751473 0.058778525
135 68 5 49.218966076 22.037329174 0.570633910
136 68 2 49.359984681 22.100468929 0.095105652
137 69 5 49.417016677 22.499802942 0.570633910
138 69 2 49.276397572 22.435778394 0.095105652
139 70 1 49.546917054 22.935878764 0.352671151
140 70 2 49.179831893 22.765950517 0.058778525
141 71 5 49.505513566 23.295526407 0.000000000
142 71 2 49.053100040 23.082636762 0.000000000
143 72 5 49.254791871 23.556676379 -0.352671151
144 72 2 48.889871018 23.382148742 -0.058778525
145 73 1 48.835988059 23.734551609 -0.570633910
146 73 2 48.697022305 23.667013508 -0.095105652
147 74 5 48.353403691 23.876742871 -0.570633910
148 74 2 48.491942351 23.945152780 -0.095105652
149 75 5 47.934275797 24.045567997 -0.352671151
150 75 2 48.295842248 24.226942817 -0.058778525
151 76 1 47.680147587 24.294248631 -0.000000000
152 76 2 48.125650849 24.521243881 -0.000000000
153 77 5 47.628333541 24.646013481 0.352671151
154 77 2 47.987592281 24.831917440 0.058778525
155 78 5 47.738108341 25.084327990 0.570633910
156 78 2 47.874884101 25.156197784 0.095105652
157 79 1 47.906729167 25.558324871 0.570633910
158 79 2 47.770407676 25.485597114 0.095105652
159 80 5 48.008991788 26.001696709 0.352671151
160 80 2 47.653300869 25.809054309 0.058778525
161 81 5 47.945087538 26.358034924 0.000000000
162 81 2 47.506934198 26.117158087 0.000000000
163 82 1 47.678462842 26.602926630 -0.352671151
164 82 2 47.325220759 26.405829814 -0.058778525
165 83 5 47.249316565 26.754153955 -0.570633910
166 83 2 47.114865781 26.678023394 -0.095105652
167 84 5 46.758756205 26.865762912 -0.570633910
168 84 2 46.892725996 26.942736744 -0.095105652
169 85 1 46.329854746 27.007937641 -0.352671151
170 85 2 46.679319109 27.211657506 -0.058778525
171 86 5 46.060613214 27.240170719 0.000000000
172 86 2 46.490984228 27.494691427 0.000000000
173 87 5 45.986813914 27.587988011 0.352671151
174 87 2 46.333690733 27.796083173 0.058778525
175 88 1 46.068850103 28.032330423 0.570633910
176 88 2 46.200843225 28.112646619 0.095105652
177 89 5 46.207375684 28.515979769 0.570633910
178 89 2 46.075889805 28.434835826 0.095105652
179 90 5 46.281596964 28.964897837 0.352671151
180 90 2 45.938704036 28.750301555 0.058778525
181 91 1 46.195444153 29.316520318 0.000000000
182 91 2 45.773280190 29.048606921 0.000000000
183 92 5 45.913968702 29.544187283 -0.352671151
184 92 2 45.573799473 29.325299139 -0.058778525
185 93 5 45.476173606 29.668169878 -0.570633910
186 93 2 45.346768407 29.583747308 -0.095105652
187 94 1 44.979573270 29.748756061 -0.570633910
188 94 2 45.108445475 29.833990035 -0.095105652
189 95 5 44.542590925 29.863719295 -0.352671151
190 95 2 44.878574024 30.088980214 -0.058778525
191 96 5 44.259298644 30.078588298 -0.000000000
192 96 2 44.672838931 30.359629987 -0.000000000
193 97 1 44.163805341 30.421085355 0.352671151
194 97 2 44.496931275 30.650550465 0.058778525
195 98 5 44.217779159 30.869702054 0.570633910
196 98 2 44.344468728 30.958147681 0.095105652
197 99 5 44.325662798 31.361095122 0.570633910
198 99 2 44.199531447 31.271855231 0.095105652
199 100 1 44.371549821 31.813787745 0.352671151
200 100 2 44.042808126 31.578084495 0.058778525
201 101 5 44.263488455 32.159306800 0.000000000
202 101 2 43.858979957 31.865414174 0.000000000
203 102 5 43.968273105 32.368850527 -0.352671151
204 102 2 43.642519222 32.129034906 -0.058778525
205 103 1 43.523556965 32.465099088 -0.570633910
206 103 2 43.399708055 32.372717688 -0.095105652
207 104 5 43.022876508 32.514344460 -0.570633910
208 104 2 43.146142528 32.607502197 -0.095105652
209 105 5 42.579537847 32.601642492 -0.352671151
210 105 2 42.900713710 32.847555463 -0.058778525
211 106 1 42.283312842 32.798299431 0.000000000
212 106 2 42.678390348 33.104752958 0.000000000
213 107 5 42.166502406 33.134124574 0.352671151
214 107 2 42.484562758 33.384054038 0.058778525
215 108 5 42.192200843 33.585245074 0.570633910
216 108 2 42.313086872 33.681471078 0.095105652
217 109 1 42.269016772 34.082442560 0.570633910
218 109 2 42.148737732 33.985458911 0.095105652
219 110 5 42.286388443 34.537123168 0.352671151
220 110 2 41.973095374 34.281243162 0.058778525
221 111 5 42.156844990 34.875175191 0.000000000
222 111 2 41.771588368 34.556463196 0.000000000
223 112 1 41.849054820 35.065768705 -0.352671151
224 112 2 41.539001886 34.805972050 -0.058778525
225 113 5 41.399172729 35.133903385 -0.570633910
226 113 2 41.281368883 35.033927741 -0.095105652
227 114 5 40.896388108 35.151613596 -0.570633910
228 114 2 41.013561468 35.252327445 -0.095105652
229 115 1 40.448442786 35.210901900 -0.352671151
230 115 2 40.753543878 35.476496418 -0.058778525
231 116 5 40.140454122 35.388570660 -0.000000000
232 116 2 40.515509657 35.719226593 -0.000000000
233 117 5 40.002787549 35.716398541 0.352671151
234 117 2 40.304527081 35.985806000 0.058778525
235 118 1 40.000109186 36.168242476 0.570633910
236 118 2 40.114714593 36.271869096 0.095105652
237 119 5 40.045554248 36.669282168 0.570633910
238 119 2 39.931602204 36.564937511 0.095105652
239 120 5 40.034342008 37.124156344 0.352671151
240 120 2 39.737733990 36.849109424 0.058778525
241 121 1 39.883827717 37.453407197 0.000000000
242 121 2 39.519343403 37.111133644 0.000000000
243 122 5 39.564677435 37.624298315 -0.352671151
244 122 2 39.271549086 37.345545924 -0.058778525
245 123 5 39.111404872 37.664050216 -0.570633910
246 123 2 39.000111007 37.556874886 -0.095105652
247 124 1 38.608500348 37.650155372 -0.570633910
248 124 2 38.719118618 37.758027862 -0.095105652
249 125 5 38.157716200 37.681199965 -0.352671151
250 125 2 38.445538427 37.965427849 -0.058778525
251 126 5 37.839179368 37.839179368 0.000000000
252 126 2 38.192732759 38.192732759 0.000000000
253 127 1 37.681199965 38.157716200 0.352671151
254 127 2 37.965427849 38.445538427 0.058778525
255 128 5 37.650155372 38.608500348 0.570633910
256 128 2 37.758027862 38.719118618 0.095105652
257 129 5 37.664050216 39.111404872 0.570633910
258 129 2 37.556874886 39.000111007 0.095105652
259 130 1 37.624298315 39.564677435 0.352671151
260 130 2 37.345545924 39.271549086 0.058778525
261 131 5 37.453407197 39.883827717 -0.000000000
262 131 2 37.111133644 39.519343403 -0.000000000
263 132 5 37.124156344 40.034342008 -0.352671151
264 132 2 36.849109424 39.737733990 -0.058778525
265 133 1 36.669282168 40.045554248 -0.570633910
266 133 2 36.564937511 39.931602204 -0.095105652
267 134 5 36.168242476 40.000109186 -0.570633910
268 134 2 36.271869096 40.114714593 -0.095105652
269 135 5 35.716398541 40.002787549 -0.352671151
270 135 2 35.985806000 40.304527081 -0.058778525
271 136 1 35.388570660 40.140454122 -0.000000000
272 136 2 35.719226593 40.515509657 -0.000000000
273 137 5 35.210901900 40.448442786 0.352671151
274 137 2 35.476496418 40.753543878 0.058778525
275 138 5 35.151613596 40.896388108 0.570633910
276 138 2 35.252327445 41.013561468 0.095105652
277 139 1 35.133903385 41.399172729 0.570633910
278 139 2 35.033927741 41.281368883 0.095105652
279 140 5 35.065768705 41.849054820 0.352671151
280 140 2 34.805972050 41.539001886 0.058778525
281 141 5 34.875175191 42.156844990 0.000000000
282 141 2 34.556463196 41.771588368 0.000000000
283 142 1 34.537123168 42.286388443 -0.352671151
284 142 2 34.281243162 41.973095374 -0.058778525
285 143 5 34.082442560 42.269016772 -0.570633910
286 143 2 33.985458911 42.148737732 -0.095105652
287 144 5 33.585245074 42.192200843 -0.570633910
288 144 2 33.681471078 42.313086872 -0.095105652
289 145 1 33.134124574 42.166502406 -0.352671151
290 145 2 33.384054038 42.484562758 -0.058778525
291 146 5 32.798299431 42.283312842 0.000000000
292 146 2 33.104752958 42.678390348 0.000000000
293 147 5 32.601642492 42.579537847 0.352671151
294 147 2 32.847555463 42.900713710 0.058778525
295 148 1 32.514344460 43.022876508 0.570633910
296 148 2 32.607502197 43.146142528 0.095105652
297 149 5 32.465099088 43.523556965 0.570633910
298 149 2 32.372717688 43.399708055 0.095105652
299 150 5 32.368850527 43.968273105 0.352671151
300 150 2 32.129034906 43.642519222 0.058778525
301 151 1 32.159306800 44.263488455 0.000000000
302 151 2 31.865414174 43.858979957 0.000000000
303 152 5 31.813787745 44.371549821 -0.352671151
304 152 2 31.578084495 44.042808126 -0.058778525
305 153 5 31.361095122 44.325662798 -0.570633910
306 153 2 31.271855231 44.199531447 -0.095105652
307 154 1 30.869702054 44.217779159 -0.570633910
308 154 2 30.958147681 44.344468728 -0.095105652
309 155 5 30.421085355 44.163805341 -0.352671151
310 155 2 30.650550465 44.496931275 -0.058778525
311 156 5 30.078588298 44.259298644 -0.000000000
312 156 2 30.359629987 44.672838931 -0.000000000
313 157 1 29.863719295 44.542590925 0.352671151
314 157 2 30.088980214 44.878574024 0.058778525
315 158 5 29.748756061 44.979573270 0.570633910
316 158 2 29.833990035 45.108445475 0.095105652
317 159 5 29.668169878 45.476173606 0.570633910
318 159 2 29.583747308 45.346768407 0.095105652
319 160 1 29.544187283 45.913968702 0.352671151
320 160 2 29.325299139 45.573799473 0.058778525
321 161 5 29.316520318 46.195444153 0.000000000
322 161 2 29.048606921 45.773280190 0.000000000
323 162 5 28.964897837 46.281596964 -0.352671151
324 162 2 28.750301555 45.938704036 -0.058778525
325 163 1 28.515979769 46.207375684 -0.570633910
326 163 2 28.434835826 46.075889805 -0.095105652
327 164 5 28.032330423 46.068850103 -0.570633910
328 164 2 28.112646619 46.200843225 -0.095105652
329 165 5 27.587988011 45.986813914 -0.352671151
330 165 2 27.796083173 46.333690733 -0.058778525
331 166 1 27.240170719 46.060613214 -0.000000000
332 166 2 27.494691427 46.490984228 -0.000000000
333 167 5 27.007937641 46.329854746 0.352671151
334 167 2 27.211657506 46.679319109 0.058778525
335 168 5 26.865762912 46.758756205 0.570633910
336 168 2 26.942736744 46.892725996 0.095105652
337 169 1 26.754153955 47.249316565 0.570633910
338 169 2 26.678023394 47.114865781 0.095105652
339 170 5 26.602926630 47.678462842 0.352671151
340 170 2 26.405829814 47.325220759 0.058778525
341 171 5 26.358034924 47.945087538 -0.000000000
342 171 2 26.117158087 47.506934198 -0.000000000
343 172 1 26.001696709 48.008991788 -0.352671151
344 172 2 25.809054309 47.653300869 -0.058778525
345 173 5 25.558324871 47.906729167 -0.570633910
346 173 2 25.485597114 47.770407676 -0.095105652
347 174 5 25.084327990 47.738108341 -0.570633910
348 174 2 25.156197784 47.874884101 -0.095105652
349 175 1 24.646013481 47.628333541 -0.352671151
350 175 2 24.831917440 47.987592281 -0.058778525
351 176 5 24.294248631 47.680147587 -0.000000000
352 176 2 24.521243881 48.125650849 -0.000000000
353 177 5 24.045567997 47.934275797 0.352671151
354 177 2 24.226942817 48.295842248 0.058778525
355 178 1 23.876742871 48.353403691 0.570633910
356 178 2 23.945152780 48.491942351 0.095105652
357 179 5 23.734551609 48.835988059 0.570633910
358 179 2 23.667013508 48.697022305 0.095105652
359 180 5 23.556676379 49.254791871 0.352671151
360 180 2 23.382148742 48.889871018 0.058778525
361 181 1 23.295526407 49.505513566 0.000000000
362 181 2 23.082636762 49.053100040 0.000000000
363 182 5 22.935878764 49.546917054 -0.352671151
364 182 2 22.765950517 49.179831893 -0.058778525
365 183 5 22.499802942 49.417016677 -0.570633910
366 183 2 22.435778394 49.276397572 -0.095105652
367 184 1 22.037329174 49.218966076 -0.570633910
368 184 2 22.100468929 49.359984681 -0.095105652
369 185 5 21.606772396 49.081885895 -0.352671151
370 185 2 21.769751473 49.452108727 -0.058778525
371 186 5 21.252448243 49.111510200 -0.000000000
372 186 2 21.451022188 49.570387513 -0.000000000
373 187 1 20.988301480 49.349522160 0.352671151
374 187 2 21.146615454 49.721763761 0.058778525
375 188 5 20.793492235 49.757222384 0.570633910
376 188 2 20.853068238 49.899783163 0.095105652
377 189 5 20.621279831 50.229926218 0.570633910
378 189 2 20.562600733 50.086993929 0.095105652
379 190 1 20.417458688 50.636734738 0.352671151
380 190 2 20.266189012 50.261575293 0.058778525
381 191 5 20.141081091 50.870563949 0.000000000
382 191 2 19.957018815 50.405675706 0.000000000
383 192 5 19.779543383 50.889303275 -0.352671151
384 192 2 19.632999919 50.512272590 -0.058778525
385 193 1 19.352484570 50.732277799 -0.570633910
386 193 2 19.297415906 50.587916039 -0.095105652
387 194 5 18.903359089 50.505579037 -0.570633910
388 194 2 18.957519620 50.650283952 -0.095105652
389 195 5 18.482259251 50.341734469 -0.352671151
390 195 2 18.621670242 50.721460291 -0.058778525
391 196 1 18.126774151 50.349052120 -0.000000000
392 196 2 18.296143111 50.819492504 -0.000000000
393 197 5 17.848203727 50.570008504 0.352671151
394 197 2 17.982832061 50.951456189 0.058778525
395 198 5 17.628179184 50.964672052 0.570633910
396 198 2 17.678686162 51.110692327 0.095105652
397 199 1 17.426625282 51.425629806 0.570633910
398 199 2 17.377036768 51.279295071 0.095105652
399 200 5 17.197662616 51.818837548 0.352671151
400 200 2 17.070247892 51.434920092 0.058778525
401 201 5 16.907148129 52.034851457 0.000000000
402 201 2 16.752639632 51.559323199 0.000000000
403 202 1 16.545147182 52.030852664 -0.352671151
404 202 2 16.422566840 51.645364423 -0.058778525
405 203 5 16.128790782 51.847321798 -0.570633910
406 203 2 16.082895334 51.699787112 -0.095105652
407 204 5 15.694786081 51.592869552 -0.570633910
408 204 2 15.739753641 51.740689693 -0.095105652
409 205 1 15.284805073 51.402907216 -0.352671151
410 205 2 15.400097787 51.790637425 -0.058778525
411 206 5 14.929561962 51.387889333 -0.000000000
412 206 2 15.069057515 51.868036176 -0.000000000
413 207 5 14.637667267 51.590918129 0.352671151
414 207 2 14.748078644 51.980066497 0.058778525
415 208 1 14.393295763 51.970987443 0.570633910
416 208 2 14.434534388 52.119890940 0.095105652
417 209 5 14.163195805 52.418379928 0.570633910
418 209 2 14.122893576 52.269220262 0.095105652
419 210 5 13.909995226 52.796435079 0.352671151
420 210 2 13.806938303 52.405274760 0.058778525
421 211 1 13.606490378 52.993781179 -0.000000000
422 211 2 13.482145434 52.509489598 -0.000000000
423 212 5 13.245454843 52.967060049 -0.352671151
424 212 2 13.147321392 52.574635597 -0.058778525
425 213 5 12.841444026 52.757748104 -0.570633910
426 213 2 12.804902921 52.607622746 -0.095105652
427 214 1 12.424272922 52.476546581 -0.570633910
428 214 2 12.459870046 52.626898569 -0.095105652
429 215 5 12.027028752 52.261216172 -0.352671151
430 215 2 12.117748181 52.655420573 -0.058778525
431 216 5 11.673429613 52.223922024 -0.000000000
432 216 2 11.782501234 52.711880405 -0.000000000
433 217 1 11.369362622 52.408221969 0.352671151
434 217 2 11.455121300 52.803535229 0.058778525
435 218 5 11.101608580 52.772197089 0.570633910
436 218 2 11.133416102 52.923396154 0.095105652
437 219 5 10.843870665 53.204258652 0.570633910
438 219 2 10.813013776 53.052862720 0.095105652
439 220 1 10.567431440 53.565669201 0.352671151
440 220 2 10.489139036 53.168809751 0.058778525
441 221 5 10.252134025 53.743568657 0.000000000
442 221 2 10.158443368 53.252425032 0.000000000
443 222 5 9.893488745 53.694230646 -0.352671151
444 222 2 9.820189474 53.296418704 -0.058778525
445 223 1 9.503417957 53.459963682 -0.570633910
446 223 2 9.476375407 53.307840126 -0.095105652
447 224 5 9.104726835 53.153122655 -0.570633910
448 224 2 9.130813037 53.305413120 -0.095105652
449 225 5 8.721787244 52.913273984 -0.352671151
450 225 2 8.787575359 53.312396832 -0.058778525
451 226 1 8.371227571 52.853850753 -0.000000000
452 226 2 8.449444803 53.347694924 -0.000000000
453 227 5 8.056188297 53.018694500 0.352671151
454 227 2 8.116955824 53.418612532 0.058778525
455 228 5 7.766108419 53.365138983 0.570633910
456 228 2 7.788359309 53.518036902 0.095105652
457 229 1 7.481749722 53.780164474 0.570633910
458 229 2 7.460459951 53.627129767 0.095105652
459 230 5 7.183162830 54.123504099 0.352671151
460 230 2 7.129943929 53.722511739 0.058778525
461 231 5 6.857317183 54.281254822 0.000000000
462 231 2 6.794650566 53.785197472 0.000000000
463 232 1 6.502477567 54.209494646 -0.352671151
464 232 2 6.454301753 53.807865195 -0.058778525
465 233 5 6.127886239 53.951197206 -0.570633910
466 233 2 6.110448968 53.797675816 -0.095105652
467 234 5 5.749248550 53.619927637 -0.570633910
468 234 2 5.765720879 53.773555558 -0.095105652
469 235 1 5.382124826 53.356507277 -0.352671151
470 235 2 5.422721992 53.758973417 -0.058778525
471 236 5 5.035988117 53.275189480 0.000000000
472 236 2 5.083042274 53.772970463 0.000000000
473 237 5 4.711219877 53.419926466 0.352671151
474 237 2 4.746756433 53.822870976 0.058778525
475 238 1 4.399958977 53.747473054 0.570633910
476 238 2 4.412565419 53.901466409 0.095105652
477 239 5 4.090101730 54.143824556 0.570633910
478 239 2 4.078463098 53.989755033 0.095105652
479 240 5 3.770545558 54.467738253 0.352671151
480 240 2 3.742610191 54.064195518 0.058778525
481 241 1 3.435437643 54.604717674 0.000000000
482 241 2 3.404042383 54.105704310 0.000000000
483 242 5 3.085804080 54.510818536 -0.352671151
484 242 2 3.062941853 54.106956625 -0.058778525
485 243 5 2.728170553 54.229510003 -0.570633910
486 243 2 2.720407379 54.075196657 -0.095105652
487 244 1 2.371080608 53.875119261 -0.570633910
488 244 2 2.377874056 54.029478339 -0.095105652
489 245 5 2.021221620 53.589166812 -0.352671151
490 245 2 2.036467619 53.993387895 -0.058778525
491 246 5 1.680873920 53.486275374 -0.000000000
492 246 2 1.696579299 53.986028654 -0.000000000
493 247 1 1.347658425 53.610334388 0.352671151
494 247 2 1.357823762 54.014715137 0.058778525
495 248 5 1.016444906 53.917690403 0.570633910
496 248 2 1.019357150 54.072171453 0.095105652
497 249 5 0.682311975 54.293803699 0.570633910
498 249 2 0.680370415 54.139307401 0.095105652
499 250 1 0.343047665 54.597013128 0.352671151
500 250 2 0.340506080 54.192512616 0.058778525
501 251 5 0.000000000 54.712680651 -0.000000000
502 251 2 0.000000000 54.212680651 -0.000000000
503 252 5 -0.343047665 54.597013128 -0.352671151
504 252 2 -0.340506080 54.192512616 -0.058778525
505 253 1 -0.682311975 54.293803699 -0.570633910
506 253 2 -0.680370415 54.139307401 -0.095105652
507 254 5 -1.016444906 53.917690403 -0.570633910
508 254 2 -1.019357150 54.072171453 -0.095105652
509 255 5 -1.347658425 53.610334388 -0.352671151
510 255 2 -1.357823762 54.014715137 -0.058778525
511 256 1 -1.680873920 53.486275374 -0.000000000
512 256 2 -1.696579299 53.986028654 -0.000000000
513 257 5 -2.021221620 53.589166812 0.352671151
514 257 2 -2.036467619 53.993387895 0.058778525
515 258 5 -2.371080608 53.875119261 0.570633910
516 258 2 -2.377874056 54.029478339 0.095105652
517 259 1 -2.728170553 54.229510003 0.570633910
518 259 2 -2.720407379 54.075196657 0.095105652
519 260 5 -3.085804080 54.510818536 0.352671151
520 260 2 -3.062941853 54.106956625 0.058778525
521 261 5 -3.435437643 54.604717674 -0.000000000
522 261 2 -3.404042383 54.105704310 -0.000000000
523 262 1 -3.770545558 54.467738253 -0.352671151
524 262 2 -3.742610191 54.064195518 -0.058778525
525 263 5 -4.090101730 54.143824556 -0.570633910
526 263 2 -4.078463098 53.989755033 -0.095105652
527 264 5 -4.399958977 53.747473054 -0.570633910
528 264 2 -4.412565419 53.901466409 -0.095105652
529 265 1 -4.711219877 53.419926466 -0.352671151
530 265 2 -4.746756433 53.822870976 -0.058778525
531 266 5 -5.035988117 53.275189480 -0.000000000
532 266 2 -5.083042274 53.772970463 -0.000000000
533 267 5 -5.382124826 53.356507277 0.352671151
534 267 2 -5.422721992 53.758973417 0.058778525
535 268 1 -5.749248550 53.619927637 0.570633910
536 268 2 -5.765720879 53.773555558 0.095105652
537 269 5 -6.127886239 53.951197206 0.570633910
538 269 2 -6.110448968 53.797675816 0.095105652
539 270 5 -6.502477567 54.209494646 0.352671151
540 270 2 -6.454301753 53.807865195 0.058778525
541 271 1 -6.857317183 54.281254822 0.000000000
542 271 2 -6.794650566 53.785197472 0.000000000
543 272 5 -7.183162830 54.123504099 -0.352671151
544 272 2 -7.129943929 53.722511739 -0.058778525
545 273 5 -7.481749722 53.780164474 -0.570633910
546 273 2 -7.460459951 53.627129767 -0.095105652
547 274 1 -7.766108419 53.365138983 -0.570633910
548 274 2 -7.788359309 53.518036902 -0.095105652
549 275 5 -8.056188297 53.018694500 -0.352671151
550 275 2 -8.116955824 53.418612532 -0.058778525
551 276 5 -8.371227571 52.853850753 0.000000000
552 276 2 -8.449444803 53.347694924 0.000000000
553 277 1 -8.721787244 52.913273984 0.352671151
554 277 2 -8.787575359 53.312396832 0.058778525
555 278 5 -9.104726835 53.153122655 0.570633910
556 278 2 -9.130813037 53.305413120 0.095105652
557 279 5 -9.503417957 53.459963682 0.570633910
558 279 2 -9.476375407 53.307840126 0.095105652
559 280 1 -9.893488745 53.694230646 0.352671151
560 280 2 -9.820189474 53.296418704 0.058778525
561 281 5 -10.252134025 53.743568657 0.000000000
562 281 2 -10.158443368 53.252425032 0.000000000
563 282 5 -10.567431440 53.565669201 -0.352671151
564 282 2 -10.489139036 53.168809751 -0.058778525
565 283 1 -10.843870665 53.204258652 -0.570633910
566 283 2 -10.813013776 53.052862720 -0.095105652
567 284 5 -11.101608580 52.772197089 -0.570633910
568 284 2 -11.133416102 52.923396154 -0.095105652
569 285 5 -11.369362622 52.408221969 -0.352671151
570 285 2 -11.455121300 52.803535229 -0.058778525
571 286 1 -11.673429613 52.223922024 -0.000000000
572 286 2 -11.782501234 52.711880405 -0.000000000
573 287 5 -12.027028752 52.261216172 0.352671151
574 287 2 -12.117748181 52.655420573 0.058778525
575 288 5 -12.424272922 52.476546581 0.570633910
576 288 2 -12.459870046 52.626898569 0.095105652
577 289 1 -12.841444026 52.757748104 0.570633910
578 289 2 -12.804902921 52.607622746 0.095105652
579 290 5 -13.245454843 52.967060049 0.352671151
580 290 2 -13.147321392 52.574635597 0.058778525
581 291 5 -13.606490378 52.993781179 -0.000000000
582 291 2 -13.482145434 52.509489598 -0.000000000
583 292 1 -13.909995226 52.796435079 -0.352671151
584 292 2 -13.806938303 52.405274760 -0.058778525
585 293 5 -14.163195805 52.418379928 -0.570633910
586 293 2 -14.122893576 52.269220262 -0.095105652
587 294 5 -14.393295763 51.970987443 -0.570633910
588 294 2 -14.434534388 52.119890940 -0.095105652
589 295 1 -14.637667267 51.590918129 -0.352671151
590 295 2 -14.748078644 51.980066497 -0.058778525
591 296 5 -14.929561962 51.387889333 -0.000000000
592 296 2 -15.069057515 51.868036176 -0.000000000
593 297 5 -15.284805073 51.402907216 0.352671151
594 297 2 -15.400097787 51.790637425 0.058778525
595 298 1 -15.694786081 51.592869552 0.570633910
596 298 2 -15.739753641 51.740689693 0.095105652
597 299 5 -16.128790782 51.847321798 0.570633910
598 299 2 -16.082895334 51.699787112 0.095105652
599 300 5 -16.545147182 52.030852664 0.352671151
600 300 2 -16.422566840 51.645364423 0.058778525
601 301 1 -16.907148129 52.034851457 0.000000000
602 301 2 -16.752639632 51.559323199 0.000000000
603 302 5 -17.197662616 51.818837548 -0.352671151
604 302 2 -17.070247892 51.434920092 -0.058778525
605 303 5 -17.426625282 51.425629806 -0.570633910
606 303 2 -17.377036768 51.279295071 -0.095105652
607 304 1 -17.628179184 50.964672052 -0.570633910
608 304 2 -17.678686162 51.110692327 -0.095105652
609 305 5 -17.848203727 50.570008504 -0.352671151
610 305 2 -17.982832061 50.951456189 -0.058778525
611 306 5 -18.126774151 50.349052120 -0.000000000
612 306 2 -18.296143111 50.819492504 -0.000000000
613 307 1 -18.482259251 50.341734469 0.352671151
614 307 2 -18.621670242 50.721460291 0.058778525
615 308 5 -18.903359089 50.505579037 0.570633910
616 308 2 -18.957519620 50.650283952 0.095105652
617 309 5 -19.352484570 50.732277799 0.570633910
618 309 2 -19.297415906 50.587916039 0.095105652
619 310 1 -19.779543383 50.889303275 0.352671151